  27  27   0   0
  0.4389436E+02  0.9551582E-09  0.9551582E-09  0.1500000E-08  0.5000000E-15
  1.000000000000000E-004
  CAR 
 unknown system                          
      5.84928462    -64.81604199  301     -0.24559980      1.00000000
    -64.816  0.0000E+00  0.0000E+00
    -64.580  0.0000E+00  0.0000E+00
    -64.345  0.0000E+00  0.0000E+00
    -64.109  0.0000E+00  0.0000E+00
    -63.874  0.0000E+00  0.0000E+00
    -63.638  0.0000E+00  0.0000E+00
    -63.403  0.0000E+00  0.0000E+00
    -63.167  0.0000E+00  0.0000E+00
    -62.932  0.0000E+00  0.0000E+00
    -62.696  0.0000E+00  0.0000E+00
    -62.461  0.0000E+00  0.0000E+00
    -62.225  0.0000E+00  0.0000E+00
    -61.989  0.3253E-06  0.7663E-07
    -61.754  0.5038E+00  0.1187E+00
    -61.518  0.5988E+02  0.1422E+02
    -61.283  0.1603E+02  0.1800E+02
    -61.047  0.1547E-02  0.1800E+02
    -60.812  0.4725E-11  0.1800E+02
    -60.576  0.0000E+00  0.1800E+02
    -60.341  0.0000E+00  0.1800E+02
    -60.105  0.0000E+00  0.1800E+02
    -59.869  0.0000E+00  0.1800E+02
    -59.634  0.0000E+00  0.1800E+02
    -59.398  0.0000E+00  0.1800E+02
    -59.163  0.0000E+00  0.1800E+02
    -58.927  0.0000E+00  0.1800E+02
    -58.692  0.0000E+00  0.1800E+02
    -58.456  0.0000E+00  0.1800E+02
    -58.221  0.0000E+00  0.1800E+02
    -57.985  0.0000E+00  0.1800E+02
    -57.750  0.0000E+00  0.1800E+02
    -57.514  0.0000E+00  0.1800E+02
    -57.278  0.0000E+00  0.1800E+02
    -57.043  0.0000E+00  0.1800E+02
    -56.807  0.0000E+00  0.1800E+02
    -56.572  0.0000E+00  0.1800E+02
    -56.336  0.0000E+00  0.1800E+02
    -56.101  0.0000E+00  0.1800E+02
    -55.865  0.0000E+00  0.1800E+02
    -55.630  0.0000E+00  0.1800E+02
    -55.394  0.0000E+00  0.1800E+02
    -55.158  0.0000E+00  0.1800E+02
    -54.923  0.0000E+00  0.1800E+02
    -54.687  0.0000E+00  0.1800E+02
    -54.452  0.0000E+00  0.1800E+02
    -54.216  0.0000E+00  0.1800E+02
    -53.981  0.0000E+00  0.1800E+02
    -53.745  0.0000E+00  0.1800E+02
    -53.510  0.0000E+00  0.1800E+02
    -53.274  0.0000E+00  0.1800E+02
    -53.038  0.0000E+00  0.1800E+02
    -52.803  0.0000E+00  0.1800E+02
    -52.567  0.0000E+00  0.1800E+02
    -52.332  0.0000E+00  0.1800E+02
    -52.096  0.0000E+00  0.1800E+02
    -51.861  0.0000E+00  0.1800E+02
    -51.625  0.0000E+00  0.1800E+02
    -51.390  0.0000E+00  0.1800E+02
    -51.154  0.0000E+00  0.1800E+02
    -50.919  0.0000E+00  0.1800E+02
    -50.683  0.0000E+00  0.1800E+02
    -50.447  0.0000E+00  0.1800E+02
    -50.212  0.0000E+00  0.1800E+02
    -49.976  0.0000E+00  0.1800E+02
    -49.741  0.0000E+00  0.1800E+02
    -49.505  0.0000E+00  0.1800E+02
    -49.270  0.0000E+00  0.1800E+02
    -49.034  0.0000E+00  0.1800E+02
    -48.799  0.0000E+00  0.1800E+02
    -48.563  0.0000E+00  0.1800E+02
    -48.327  0.0000E+00  0.1800E+02
    -48.092  0.0000E+00  0.1800E+02
    -47.856  0.0000E+00  0.1800E+02
    -47.621  0.0000E+00  0.1800E+02
    -47.385  0.0000E+00  0.1800E+02
    -47.150  0.0000E+00  0.1800E+02
    -46.914  0.0000E+00  0.1800E+02
    -46.679  0.0000E+00  0.1800E+02
    -46.443  0.0000E+00  0.1800E+02
    -46.208  0.0000E+00  0.1800E+02
    -45.972  0.0000E+00  0.1800E+02
    -45.736  0.0000E+00  0.1800E+02
    -45.501  0.0000E+00  0.1800E+02
    -45.265  0.0000E+00  0.1800E+02
    -45.030  0.0000E+00  0.1800E+02
    -44.794  0.0000E+00  0.1800E+02
    -44.559  0.0000E+00  0.1800E+02
    -44.323  0.0000E+00  0.1800E+02
    -44.088  0.0000E+00  0.1800E+02
    -43.852  0.0000E+00  0.1800E+02
    -43.616  0.0000E+00  0.1800E+02
    -43.381  0.0000E+00  0.1800E+02
    -43.145  0.0000E+00  0.1800E+02
    -42.910  0.0000E+00  0.1800E+02
    -42.674  0.0000E+00  0.1800E+02
    -42.439  0.0000E+00  0.1800E+02
    -42.203  0.0000E+00  0.1800E+02
    -41.968  0.0000E+00  0.1800E+02
    -41.732  0.0000E+00  0.1800E+02
    -41.496  0.0000E+00  0.1800E+02
    -41.261  0.0000E+00  0.1800E+02
    -41.025  0.0000E+00  0.1800E+02
    -40.790  0.0000E+00  0.1800E+02
    -40.554  0.0000E+00  0.1800E+02
    -40.319  0.0000E+00  0.1800E+02
    -40.083  0.0000E+00  0.1800E+02
    -39.848  0.0000E+00  0.1800E+02
    -39.612  0.0000E+00  0.1800E+02
    -39.377  0.0000E+00  0.1800E+02
    -39.141  0.0000E+00  0.1800E+02
    -38.905  0.0000E+00  0.1800E+02
    -38.670  0.0000E+00  0.1800E+02
    -38.434  0.0000E+00  0.1800E+02
    -38.199  0.0000E+00  0.1800E+02
    -37.963  0.0000E+00  0.1800E+02
    -37.728  0.0000E+00  0.1800E+02
    -37.492  0.0000E+00  0.1800E+02
    -37.257  0.0000E+00  0.1800E+02
    -37.021  0.0000E+00  0.1800E+02
    -36.785  0.0000E+00  0.1800E+02
    -36.550  0.0000E+00  0.1800E+02
    -36.314  0.1918E-07  0.1800E+02
    -36.079  0.7278E-01  0.1802E+02
    -35.843  0.3016E+02  0.2512E+02
    -35.608  0.1502E+03  0.6050E+02
    -35.372  0.4873E+02  0.7198E+02
    -35.137  0.9775E-01  0.7200E+02
    -34.901  0.3126E-07  0.7200E+02
    -34.666  0.0000E+00  0.7200E+02
    -34.430  0.0000E+00  0.7200E+02
    -34.194  0.0000E+00  0.7200E+02
    -33.959  0.0000E+00  0.7200E+02
    -33.723  0.0000E+00  0.7200E+02
    -33.488  0.0000E+00  0.7200E+02
    -33.252  0.0000E+00  0.7200E+02
    -33.017  0.0000E+00  0.7200E+02
    -32.781  0.0000E+00  0.7200E+02
    -32.546  0.0000E+00  0.7200E+02
    -32.310  0.0000E+00  0.7200E+02
    -32.074  0.0000E+00  0.7200E+02
    -31.839  0.0000E+00  0.7200E+02
    -31.603  0.0000E+00  0.7200E+02
    -31.368  0.0000E+00  0.7200E+02
    -31.132  0.0000E+00  0.7200E+02
    -30.897  0.0000E+00  0.7200E+02
    -30.661  0.0000E+00  0.7200E+02
    -30.426  0.0000E+00  0.7200E+02
    -30.190  0.0000E+00  0.7200E+02
    -29.954  0.0000E+00  0.7200E+02
    -29.719  0.0000E+00  0.7200E+02
    -29.483  0.0000E+00  0.7200E+02
    -29.248  0.0000E+00  0.7200E+02
    -29.012  0.0000E+00  0.7200E+02
    -28.777  0.0000E+00  0.7200E+02
    -28.541  0.0000E+00  0.7200E+02
    -28.306  0.0000E+00  0.7200E+02
    -28.070  0.0000E+00  0.7200E+02
    -27.835  0.0000E+00  0.7200E+02
    -27.599  0.0000E+00  0.7200E+02
    -27.363  0.0000E+00  0.7200E+02
    -27.128  0.0000E+00  0.7200E+02
    -26.892  0.0000E+00  0.7200E+02
    -26.657  0.0000E+00  0.7200E+02
    -26.421  0.0000E+00  0.7200E+02
    -26.186  0.0000E+00  0.7200E+02
    -25.950  0.0000E+00  0.7200E+02
    -25.715  0.0000E+00  0.7200E+02
    -25.479  0.0000E+00  0.7200E+02
    -25.243  0.0000E+00  0.7200E+02
    -25.008  0.0000E+00  0.7200E+02
    -24.772  0.0000E+00  0.7200E+02
    -24.537  0.0000E+00  0.7200E+02
    -24.301  0.0000E+00  0.7200E+02
    -24.066  0.0000E+00  0.7200E+02
    -23.830  0.0000E+00  0.7200E+02
    -23.595  0.0000E+00  0.7200E+02
    -23.359  0.0000E+00  0.7200E+02
    -23.123  0.0000E+00  0.7200E+02
    -22.888  0.0000E+00  0.7200E+02
    -22.652  0.0000E+00  0.7200E+02
    -22.417  0.0000E+00  0.7200E+02
    -22.181  0.0000E+00  0.7200E+02
    -21.946  0.0000E+00  0.7200E+02
    -21.710  0.0000E+00  0.7200E+02
    -21.475  0.0000E+00  0.7200E+02
    -21.239  0.0000E+00  0.7200E+02
    -21.004  0.0000E+00  0.7200E+02
    -20.768  0.0000E+00  0.7200E+02
    -20.532  0.0000E+00  0.7200E+02
    -20.297  0.0000E+00  0.7200E+02
    -20.061  0.0000E+00  0.7200E+02
    -19.826  0.0000E+00  0.7200E+02
    -19.590  0.0000E+00  0.7200E+02
    -19.355  0.0000E+00  0.7200E+02
    -19.119  0.0000E+00  0.7200E+02
    -18.884  0.0000E+00  0.7200E+02
    -18.648  0.0000E+00  0.7200E+02
    -18.412  0.0000E+00  0.7200E+02
    -18.177  0.0000E+00  0.7200E+02
    -17.941  0.0000E+00  0.7200E+02
    -17.706  0.0000E+00  0.7200E+02
    -17.470  0.0000E+00  0.7200E+02
    -17.235  0.0000E+00  0.7200E+02
    -16.999  0.0000E+00  0.7200E+02
    -16.764  0.0000E+00  0.7200E+02
    -16.528  0.0000E+00  0.7200E+02
    -16.293  0.0000E+00  0.7200E+02
    -16.057  0.0000E+00  0.7200E+02
    -15.821  0.0000E+00  0.7200E+02
    -15.586  0.0000E+00  0.7200E+02
    -15.350  0.8641E-15  0.7200E+02
    -15.115  0.1475E-05  0.7200E+02
    -14.879  0.9639E-01  0.7202E+02
    -14.644  0.2958E+01  0.7272E+02
    -14.408  0.4720E+01  0.7383E+02
    -14.173  0.5086E+01  0.7503E+02
    -13.937  0.5551E+01  0.7634E+02
    -13.701  0.6189E+01  0.7779E+02
    -13.466  0.9545E+01  0.8004E+02
    -13.230  0.2019E+02  0.8480E+02
    -12.995  0.2875E+02  0.9157E+02
    -12.759  0.4415E+02  0.1020E+03
    -12.524  0.2510E+02  0.1079E+03
    -12.288  0.5005E+00  0.1080E+03
    -12.053  0.6118E-05  0.1080E+03
    -11.817  0.2540E-14  0.1080E+03
    -11.581  0.0000E+00  0.1080E+03
    -11.346  0.0000E+00  0.1080E+03
    -11.110  0.0000E+00  0.1080E+03
    -10.875  0.0000E+00  0.1080E+03
    -10.639  0.0000E+00  0.1080E+03
    -10.404  0.0000E+00  0.1080E+03
    -10.168  0.0000E+00  0.1080E+03
     -9.933  0.0000E+00  0.1080E+03
     -9.697  0.0000E+00  0.1080E+03
     -9.462  0.0000E+00  0.1080E+03
     -9.226  0.0000E+00  0.1080E+03
     -8.990  0.0000E+00  0.1080E+03
     -8.755  0.0000E+00  0.1080E+03
     -8.519  0.0000E+00  0.1080E+03
     -8.284  0.0000E+00  0.1080E+03
     -8.048  0.0000E+00  0.1080E+03
     -7.813  0.0000E+00  0.1080E+03
     -7.577  0.0000E+00  0.1080E+03
     -7.342  0.0000E+00  0.1080E+03
     -7.106  0.0000E+00  0.1080E+03
     -6.870  0.1186E-07  0.1080E+03
     -6.635  0.1680E-01  0.1080E+03
     -6.399  0.3663E+01  0.1089E+03
     -6.164  0.1340E+02  0.1120E+03
     -5.928  0.2395E+02  0.1177E+03
     -5.693  0.3680E+02  0.1263E+03
     -5.457  0.2269E+02  0.1317E+03
     -5.222  0.1121E+02  0.1343E+03
     -4.986  0.7009E+01  0.1360E+03
     -4.751  0.1155E+02  0.1387E+03
     -4.515  0.4324E+02  0.1489E+03
     -4.279  0.2607E+02  0.1550E+03
     -4.044  0.1378E+02  0.1583E+03
     -3.808  0.4198E+02  0.1682E+03
     -3.573  0.2704E+02  0.1745E+03
     -3.337  0.1495E+02  0.1780E+03
     -3.102  0.1502E+02  0.1816E+03
     -2.866  0.1642E+02  0.1854E+03
     -2.631  0.2728E+02  0.1919E+03
     -2.395  0.3670E+02  0.2005E+03
     -2.159  0.2324E+02  0.2060E+03
     -1.924  0.1887E+02  0.2104E+03
     -1.688  0.2191E+02  0.2156E+03
     -1.453  0.2506E+02  0.2215E+03
     -1.217  0.2372E+02  0.2271E+03
     -0.982  0.1696E+02  0.2311E+03
     -0.746  0.1075E+02  0.2336E+03
     -0.511  0.1628E+01  0.2340E+03
     -0.275  0.6362E-03  0.2340E+03
     -0.039  0.1603E-10  0.2340E+03
      0.196  0.0000E+00  0.2340E+03
      0.432  0.7051E-13  0.2340E+03
      0.667  0.1740E-04  0.2340E+03
      0.903  0.2065E+00  0.2340E+03
      1.138  0.3584E+01  0.2349E+03
      1.374  0.2349E+02  0.2404E+03
      1.609  0.4526E+02  0.2511E+03
      1.845  0.4236E+02  0.2611E+03
      2.080  0.3860E+02  0.2702E+03
      2.316  0.2474E+02  0.2760E+03
      2.552  0.1561E+02  0.2797E+03
      2.787  0.1436E+01  0.2800E+03
      3.023  0.4592E-02  0.2800E+03
      3.258  0.3991E-08  0.2800E+03
      3.494  0.0000E+00  0.2800E+03
      3.729  0.0000E+00  0.2800E+03
      3.965  0.0000E+00  0.2800E+03
      4.200  0.0000E+00  0.2800E+03
      4.436  0.0000E+00  0.2800E+03
      4.672  0.0000E+00  0.2800E+03
      4.907  0.0000E+00  0.2800E+03
      5.143  0.0000E+00  0.2800E+03
      5.378  0.0000E+00  0.2800E+03
      5.614  0.0000E+00  0.2800E+03
      5.849  0.0000E+00  0.2800E+03
