 running on   20 total cores
 distrk:  each k-point on   20 cores,    1 groups
 distr:  one band on   10 cores,    2 groups
 using from now: INCAR     
 vasp.5.4.4.18Apr17-6-g9f103f2a35 (build Apr 28 2023 10:04:10) complex          
  
 POSCAR found type information on POSCAR  Mo S 
 POSCAR found :  2 types and      27 ions
 scaLAPACK will be used

 ----------------------------------------------------------------------------- 
|                                                                             |
|           W    W    AA    RRRRR   N    N  II  N    N   GGGG   !!!           |
|           W    W   A  A   R    R  NN   N  II  NN   N  G    G  !!!           |
|           W    W  A    A  R    R  N N  N  II  N N  N  G       !!!           |
|           W WW W  AAAAAA  RRRRR   N  N N  II  N  N N  G  GGG   !            |
|           WW  WW  A    A  R   R   N   NN  II  N   NN  G    G                |
|           W    W  A    A  R    R  N    N  II  N    N   GGGG   !!!           |
|                                                                             |
|      For optimal performance we recommend to set                            |
|        NCORE= 4 - approx SQRT( number of cores)                             |
|      NCORE specifies how many cores store one orbital (NPAR=cpu/NCORE).     |
|      This setting can  greatly improve the performance of VASP for DFT.     |
|      The default,   NCORE=1            might be grossly inefficient         |
|      on modern multi-core architectures or massively parallel machines.     |
|      Do your own testing !!!!                                               |
|      Unfortunately you need to use the default for GW and RPA calculations. |
|      (for HF NCORE is supported but not extensively tested yet)             |
|                                                                             |
 ----------------------------------------------------------------------------- 


 ----------------------------------------------------------------------------- 
|                                                                             |
|  ADVICE TO THIS USER RUNNING 'VASP/VAMP'   (HEAR YOUR MASTER'S VOICE ...):  |
|                                                                             |
|      You have a (more or less) 'large supercell' and for larger cells       |
|      it might be more efficient to use real space projection opertators     |
|      So try LREAL= Auto  in the INCAR   file.                               |
|      Mind:          For very  accurate calculation you might also keep the  |
|      reciprocal projection scheme          (i.e. LREAL=.FALSE.)             |
|                                                                             |
 ----------------------------------------------------------------------------- 

 LDA part: xc-table for Pade appr. of Perdew
 POSCAR, INCAR and KPOINTS ok, starting setup
 FFT: planning ...
 WAVECAR not read
 entering main loop
       N       E                     dE             d eps       ncg     rms          rms(c)
DAV:   1     0.198591128141E+04    0.19859E+04   -0.11959E+05 75640   0.136E+03
DAV:   2    -0.298832715666E+02   -0.20158E+04   -0.19733E+04 77564   0.323E+02
DAV:   3    -0.202626272639E+03   -0.17274E+03   -0.17020E+03 69536   0.862E+01
DAV:   4    -0.210176944485E+03   -0.75507E+01   -0.75020E+01 80368   0.166E+01
DAV:   5    -0.210397571279E+03   -0.22063E+00   -0.22005E+00 84792   0.290E+00    0.705E+01
DAV:   6    -0.200193635991E+03    0.10204E+02   -0.98336E+01 67572   0.257E+01    0.279E+01
DAV:   7    -0.198058967807E+03    0.21347E+01   -0.38599E+01 67580   0.160E+01    0.166E+01
DAV:   8    -0.196638291922E+03    0.14207E+01   -0.55423E+00 73208   0.672E+00    0.539E+00
DAV:   9    -0.196679284998E+03   -0.40993E-01   -0.10357E+00 80836   0.210E+00    0.258E+00
DAV:  10    -0.196628085203E+03    0.51200E-01   -0.25712E-01 74272   0.141E+00    0.682E-01
DAV:  11    -0.196623227159E+03    0.48580E-02   -0.27705E-02 81976   0.636E-01    0.434E-01
DAV:  12    -0.196617730858E+03    0.54963E-02   -0.98405E-03 80080   0.378E-01    0.182E-01
DAV:  13    -0.196616977493E+03    0.75337E-03   -0.14340E-03 75712   0.124E-01    0.762E-02
DAV:  14    -0.196615837680E+03    0.11398E-02   -0.98210E-04 73072   0.118E-01    0.692E-02
DAV:  15    -0.196615051326E+03    0.78635E-03   -0.11141E-03 70484   0.113E-01    0.612E-02
DAV:  16    -0.196615650254E+03   -0.59893E-03   -0.45541E-04 71640   0.552E-02    0.485E-02
DAV:  17    -0.196616527560E+03   -0.87731E-03   -0.11866E-04 72916   0.282E-02    0.222E-02
DAV:  18    -0.196617252143E+03   -0.72458E-03   -0.44882E-05 79112   0.257E-02    0.186E-02
DAV:  19    -0.196617549680E+03   -0.29754E-03   -0.13552E-05 77496   0.181E-02    0.126E-02
DAV:  20    -0.196618107526E+03   -0.55785E-03   -0.14053E-05 69984   0.946E-03    0.618E-03
DAV:  21    -0.196618222140E+03   -0.11461E-03   -0.31584E-06 79720   0.658E-03    0.488E-03
DAV:  22    -0.196618292265E+03   -0.70125E-04   -0.17633E-06 71344   0.435E-03    0.415E-03
DAV:  23    -0.196618333329E+03   -0.41063E-04   -0.98856E-07 67832   0.204E-03    0.236E-03
DAV:  24    -0.196618355025E+03   -0.21697E-04   -0.85524E-07 70304   0.152E-03    0.732E-04
DAV:  25    -0.196618357819E+03   -0.27935E-05   -0.80346E-08 59016   0.440E-04    0.494E-04
DAV:  26    -0.196618358922E+03   -0.11029E-05   -0.25738E-08 45904   0.344E-04    0.325E-04
DAV:  27    -0.196618359265E+03   -0.34335E-06   -0.11726E-08 46752   0.209E-04    0.179E-04
DAV:  28    -0.196618359321E+03   -0.55774E-07   -0.15648E-09 47448   0.714E-05    0.747E-05
DAV:  29    -0.196618359336E+03   -0.14847E-07   -0.32515E-10 41536   0.338E-05    0.400E-05
DAV:  30    -0.196618359344E+03   -0.87239E-08   -0.42268E-10 42040   0.284E-05
   1 F= -.19661836E+03 E0= -.19661836E+03  d E =-.103517E-12
