<?xml version="1.0" encoding="ISO-8859-1"?>
<modeling>
 <generator>
  <i name="program" type="string">vasp </i>
  <i name="version" type="string">5.4.4.18Apr17-6-g9f103f2a35  </i>
  <i name="subversion" type="string">(build Apr 28 2023 10:04:10) complex            parallel </i>
  <i name="platform" type="string">LinuxIFC </i>
  <i name="date" type="string">2023 11 10 </i>
  <i name="time" type="string">22:07:34 </i>
 </generator>
 <incar>
  <i type="string" name="PREC">accurate</i>
  <i type="int" name="IALGO">    38</i>
  <i type="int" name="IBRION">    -1</i>
  <i name="EDIFF">      0.00000001</i>
  <i name="ENCUT">    500.00000000</i>
  <i type="logical" name="LREAL"> F  </i>
  <i type="int" name="ISMEAR">     0</i>
  <i name="SIGMA">      0.10000000</i>
  <i type="logical" name="LWAVE"> F  </i>
  <i type="logical" name="LCHARG"> F  </i>
  <v type="int" name="KPOINT_BSE">    -1     0     0     0</v>
 </incar>
 <structure name="primitive_cell" >
  <crystal>
   <varray name="basis" >
    <v>       9.55158141       0.00000000       0.00000000 </v>
    <v>      -4.77579070       8.27191214       0.00000000 </v>
    <v>       0.00000000       0.00000000      15.00000000 </v>
   </varray>
   <i name="volume">   1185.14763341 </i>
   <varray name="rec_basis" >
    <v>       0.10469471       0.06044552       0.00000000 </v>
    <v>       0.00000000       0.12089103       0.00000000 </v>
    <v>       0.00000000       0.00000000       0.06666667 </v>
   </varray>
  </crystal>
  <varray name="positions" >
   <v>       0.22222223       0.11111111       0.25000000 </v>
   <v>       0.44444445       0.22222223       0.35415213 </v>
   <v>       0.44444445       0.22222223       0.14584787 </v>
   <v>       0.11111111      -0.11111110       0.35415213 </v>
   <v>       0.11111111      -0.11111110       0.14584787 </v>
   <v>       0.11111111       0.22222223       0.14584787 </v>
   <v>       0.11167345       0.22222223       0.35471447 </v>
   <v>      -0.44444444       0.11111111       0.25000000 </v>
   <v>      -0.11111110       0.11111111       0.25000000 </v>
   <v>      -0.44444444       0.44444445       0.25000000 </v>
   <v>       0.22222223       0.44444445       0.25000000 </v>
   <v>       0.22222223      -0.22222222       0.25000000 </v>
   <v>      -0.11111110      -0.22222222       0.25000000 </v>
   <v>       0.44444445      -0.11111110       0.35415213 </v>
   <v>       0.44444445      -0.11111110       0.14584787 </v>
   <v>      -0.22222222      -0.11111110       0.35415213 </v>
   <v>      -0.22222222      -0.11111110       0.14584787 </v>
   <v>       0.44444445      -0.44444444       0.35415213 </v>
   <v>       0.44444445      -0.44444444       0.14584787 </v>
   <v>      -0.22222222       0.22222223       0.35415213 </v>
   <v>      -0.22222222       0.22222223       0.14584787 </v>
   <v>       0.11111111      -0.44444444       0.35415213 </v>
   <v>       0.11111111      -0.44444444       0.14584787 </v>
   <v>      -0.22222222      -0.44444444       0.35415213 </v>
   <v>      -0.22222222      -0.44444444       0.14584787 </v>
   <v>      -0.11111110       0.44444445       0.25000000 </v>
   <v>      -0.44444444      -0.22222222       0.25000000 </v>
  </varray>
 </structure>
 <varray name="primitive_index" >
  <v type="int" >        1 </v>
  <v type="int" >       11 </v>
  <v type="int" >       20 </v>
  <v type="int" >       16 </v>
  <v type="int" >       25 </v>
  <v type="int" >       19 </v>
  <v type="int" >       10 </v>
  <v type="int" >        2 </v>
  <v type="int" >        3 </v>
  <v type="int" >        5 </v>
  <v type="int" >        4 </v>
  <v type="int" >        7 </v>
  <v type="int" >        9 </v>
  <v type="int" >       17 </v>
  <v type="int" >       26 </v>
  <v type="int" >       18 </v>
  <v type="int" >       27 </v>
  <v type="int" >       14 </v>
  <v type="int" >       23 </v>
  <v type="int" >       12 </v>
  <v type="int" >       21 </v>
  <v type="int" >       13 </v>
  <v type="int" >       22 </v>
  <v type="int" >       15 </v>
  <v type="int" >       24 </v>
  <v type="int" >        6 </v>
  <v type="int" >        8 </v>
 </varray>
 <kpoints>
  <generation param="Monkhorst-Pack">
   <v type="int" name="divisions">      12       12        1 </v>
   <v name="usershift">      0.00000000       0.00000000       0.00000000 </v>
   <v name="genvec1">      0.08333333      -0.00000000       0.00000000 </v>
   <v name="genvec2">      0.00000000       0.08333333       0.00000000 </v>
   <v name="genvec3">      0.00000000       0.00000000       1.00000000 </v>
   <v name="shift">      0.50000000       0.50000000       0.00000000 </v>
  </generation>
  <varray name="kpointlist" >
   <v>       0.04166667       0.04166667       0.00000000 </v>
   <v>       0.08333333      -0.04166667       0.00000000 </v>
   <v>       0.04166667      -0.08333333       0.00000000 </v>
   <v>       0.12500000       0.04166667       0.00000000 </v>
   <v>       0.16666667      -0.12500000       0.00000000 </v>
   <v>       0.04166667      -0.16666667       0.00000000 </v>
   <v>      -0.04166667      -0.12500000       0.00000000 </v>
   <v>       0.12500000      -0.16666667       0.00000000 </v>
   <v>       0.16666667      -0.04166667       0.00000000 </v>
   <v>       0.20833333       0.04166667       0.00000000 </v>
   <v>       0.25000000      -0.20833333       0.00000000 </v>
   <v>       0.04166667      -0.25000000       0.00000000 </v>
   <v>      -0.04166667      -0.20833333       0.00000000 </v>
   <v>       0.20833333      -0.25000000       0.00000000 </v>
   <v>       0.25000000      -0.04166667       0.00000000 </v>
   <v>       0.29166667       0.04166667       0.00000000 </v>
   <v>       0.33333333      -0.29166667       0.00000000 </v>
   <v>       0.04166667      -0.33333333       0.00000000 </v>
   <v>      -0.04166667      -0.29166667       0.00000000 </v>
   <v>       0.29166667      -0.33333333       0.00000000 </v>
   <v>       0.33333333      -0.04166667       0.00000000 </v>
   <v>       0.37500000       0.04166667       0.00000000 </v>
   <v>       0.41666667      -0.37500000       0.00000000 </v>
   <v>       0.04166667      -0.41666667       0.00000000 </v>
   <v>      -0.04166667      -0.37500000       0.00000000 </v>
   <v>       0.37500000      -0.41666667       0.00000000 </v>
   <v>       0.41666667      -0.04166667       0.00000000 </v>
   <v>       0.45833333       0.04166667       0.00000000 </v>
   <v>       0.50000000      -0.45833333       0.00000000 </v>
   <v>       0.04166667       0.50000000       0.00000000 </v>
   <v>      -0.04166667      -0.45833333       0.00000000 </v>
   <v>       0.45833333       0.50000000       0.00000000 </v>
   <v>       0.50000000      -0.04166667       0.00000000 </v>
   <v>      -0.45833333       0.04166667       0.00000000 </v>
   <v>      -0.41666667       0.45833333       0.00000000 </v>
   <v>       0.04166667       0.41666667       0.00000000 </v>
   <v>      -0.04166667       0.45833333       0.00000000 </v>
   <v>      -0.45833333       0.41666667       0.00000000 </v>
   <v>      -0.41666667      -0.04166667       0.00000000 </v>
   <v>      -0.37500000       0.04166667       0.00000000 </v>
   <v>      -0.33333333       0.37500000       0.00000000 </v>
   <v>       0.04166667       0.33333333       0.00000000 </v>
   <v>      -0.04166667       0.37500000       0.00000000 </v>
   <v>      -0.37500000       0.33333333       0.00000000 </v>
   <v>      -0.33333333      -0.04166667       0.00000000 </v>
   <v>      -0.29166667       0.04166667       0.00000000 </v>
   <v>      -0.25000000       0.29166667       0.00000000 </v>
   <v>       0.04166667       0.25000000       0.00000000 </v>
   <v>      -0.04166667       0.29166667       0.00000000 </v>
   <v>      -0.29166667       0.25000000       0.00000000 </v>
   <v>      -0.25000000      -0.04166667       0.00000000 </v>
   <v>      -0.20833333       0.04166667       0.00000000 </v>
   <v>      -0.16666667       0.20833333       0.00000000 </v>
   <v>       0.04166667       0.16666667       0.00000000 </v>
   <v>      -0.04166667       0.20833333       0.00000000 </v>
   <v>      -0.20833333       0.16666667       0.00000000 </v>
   <v>      -0.16666667      -0.04166667       0.00000000 </v>
   <v>      -0.12500000       0.04166667       0.00000000 </v>
   <v>      -0.08333333       0.12500000       0.00000000 </v>
   <v>       0.04166667       0.08333333       0.00000000 </v>
   <v>      -0.04166667       0.12500000       0.00000000 </v>
   <v>      -0.12500000       0.08333333       0.00000000 </v>
   <v>      -0.08333333      -0.04166667       0.00000000 </v>
   <v>      -0.04166667       0.04166667       0.00000000 </v>
   <v>       0.00000000       0.04166667       0.00000000 </v>
   <v>       0.04166667       0.00000000       0.00000000 </v>
   <v>       0.12500000       0.12500000       0.00000000 </v>
   <v>       0.25000000      -0.12500000       0.00000000 </v>
   <v>       0.12500000      -0.25000000       0.00000000 </v>
   <v>       0.20833333       0.12500000       0.00000000 </v>
   <v>       0.33333333      -0.20833333       0.00000000 </v>
   <v>       0.12500000      -0.33333333       0.00000000 </v>
   <v>      -0.12500000      -0.20833333       0.00000000 </v>
   <v>       0.20833333      -0.33333333       0.00000000 </v>
   <v>       0.33333333      -0.12500000       0.00000000 </v>
   <v>       0.29166667       0.12500000       0.00000000 </v>
   <v>       0.41666667      -0.29166667       0.00000000 </v>
   <v>       0.12500000      -0.41666667       0.00000000 </v>
   <v>      -0.12500000      -0.29166667       0.00000000 </v>
   <v>       0.29166667      -0.41666667       0.00000000 </v>
   <v>       0.41666667      -0.12500000       0.00000000 </v>
   <v>       0.37500000       0.12500000       0.00000000 </v>
   <v>       0.50000000      -0.37500000       0.00000000 </v>
   <v>       0.12500000       0.50000000       0.00000000 </v>
   <v>      -0.12500000      -0.37500000       0.00000000 </v>
   <v>       0.37500000       0.50000000       0.00000000 </v>
   <v>       0.50000000      -0.12500000       0.00000000 </v>
   <v>       0.45833333       0.12500000       0.00000000 </v>
   <v>      -0.41666667      -0.45833333       0.00000000 </v>
   <v>       0.12500000       0.41666667       0.00000000 </v>
   <v>      -0.12500000      -0.45833333       0.00000000 </v>
   <v>       0.45833333       0.41666667       0.00000000 </v>
   <v>      -0.41666667      -0.12500000       0.00000000 </v>
   <v>      -0.45833333       0.12500000       0.00000000 </v>
   <v>      -0.33333333       0.45833333       0.00000000 </v>
   <v>       0.12500000       0.33333333       0.00000000 </v>
   <v>      -0.12500000       0.45833333       0.00000000 </v>
   <v>      -0.45833333       0.33333333       0.00000000 </v>
   <v>      -0.33333333      -0.12500000       0.00000000 </v>
   <v>      -0.37500000       0.12500000       0.00000000 </v>
   <v>      -0.25000000       0.37500000       0.00000000 </v>
   <v>       0.12500000       0.25000000       0.00000000 </v>
   <v>      -0.12500000       0.37500000       0.00000000 </v>
   <v>      -0.37500000       0.25000000       0.00000000 </v>
   <v>      -0.25000000      -0.12500000       0.00000000 </v>
   <v>      -0.29166667       0.12500000       0.00000000 </v>
   <v>      -0.16666667       0.29166667       0.00000000 </v>
   <v>       0.12500000       0.16666667       0.00000000 </v>
   <v>      -0.12500000       0.29166667       0.00000000 </v>
   <v>      -0.29166667       0.16666667       0.00000000 </v>
   <v>      -0.16666667      -0.12500000       0.00000000 </v>
   <v>      -0.20833333       0.12500000       0.00000000 </v>
   <v>      -0.08333333       0.20833333       0.00000000 </v>
   <v>       0.12500000       0.08333333       0.00000000 </v>
   <v>      -0.12500000       0.20833333       0.00000000 </v>
   <v>      -0.20833333       0.08333333       0.00000000 </v>
   <v>      -0.08333333      -0.12500000       0.00000000 </v>
   <v>      -0.12500000       0.12500000       0.00000000 </v>
   <v>       0.00000000       0.12500000       0.00000000 </v>
   <v>       0.12500000       0.00000000       0.00000000 </v>
   <v>       0.20833333       0.20833333       0.00000000 </v>
   <v>       0.41666667      -0.20833333       0.00000000 </v>
   <v>       0.20833333      -0.41666667       0.00000000 </v>
   <v>       0.29166667       0.20833333       0.00000000 </v>
   <v>       0.50000000      -0.29166667       0.00000000 </v>
   <v>       0.20833333       0.50000000       0.00000000 </v>
   <v>      -0.20833333      -0.29166667       0.00000000 </v>
   <v>       0.29166667       0.50000000       0.00000000 </v>
   <v>       0.50000000      -0.20833333       0.00000000 </v>
   <v>       0.37500000       0.20833333       0.00000000 </v>
   <v>      -0.41666667      -0.37500000       0.00000000 </v>
   <v>       0.20833333       0.41666667       0.00000000 </v>
   <v>      -0.20833333      -0.37500000       0.00000000 </v>
   <v>       0.37500000       0.41666667       0.00000000 </v>
   <v>      -0.41666667      -0.20833333       0.00000000 </v>
   <v>       0.45833333       0.20833333       0.00000000 </v>
   <v>      -0.33333333      -0.45833333       0.00000000 </v>
   <v>       0.20833333       0.33333333       0.00000000 </v>
   <v>      -0.20833333      -0.45833333       0.00000000 </v>
   <v>       0.45833333       0.33333333       0.00000000 </v>
   <v>      -0.33333333      -0.20833333       0.00000000 </v>
   <v>      -0.45833333       0.20833333       0.00000000 </v>
   <v>      -0.25000000       0.45833333       0.00000000 </v>
   <v>       0.20833333       0.25000000       0.00000000 </v>
   <v>      -0.20833333       0.45833333       0.00000000 </v>
   <v>      -0.45833333       0.25000000       0.00000000 </v>
   <v>      -0.25000000      -0.20833333       0.00000000 </v>
   <v>      -0.37500000       0.20833333       0.00000000 </v>
   <v>      -0.16666667       0.37500000       0.00000000 </v>
   <v>       0.20833333       0.16666667       0.00000000 </v>
   <v>      -0.20833333       0.37500000       0.00000000 </v>
   <v>      -0.37500000       0.16666667       0.00000000 </v>
   <v>      -0.16666667      -0.20833333       0.00000000 </v>
   <v>      -0.29166667       0.20833333       0.00000000 </v>
   <v>      -0.08333333       0.29166667       0.00000000 </v>
   <v>       0.20833333       0.08333333       0.00000000 </v>
   <v>      -0.20833333       0.29166667       0.00000000 </v>
   <v>      -0.29166667       0.08333333       0.00000000 </v>
   <v>      -0.08333333      -0.20833333       0.00000000 </v>
   <v>      -0.20833333       0.20833333       0.00000000 </v>
   <v>       0.00000000       0.20833333       0.00000000 </v>
   <v>       0.20833333       0.00000000       0.00000000 </v>
   <v>       0.29166667       0.29166667       0.00000000 </v>
   <v>      -0.41666667      -0.29166667       0.00000000 </v>
   <v>       0.29166667       0.41666667       0.00000000 </v>
   <v>       0.37500000       0.29166667       0.00000000 </v>
   <v>      -0.33333333      -0.37500000       0.00000000 </v>
   <v>       0.29166667       0.33333333       0.00000000 </v>
   <v>      -0.29166667      -0.37500000       0.00000000 </v>
   <v>       0.37500000       0.33333333       0.00000000 </v>
   <v>      -0.33333333      -0.29166667       0.00000000 </v>
   <v>       0.45833333       0.29166667       0.00000000 </v>
   <v>      -0.25000000      -0.45833333       0.00000000 </v>
   <v>       0.29166667       0.25000000       0.00000000 </v>
   <v>      -0.29166667      -0.45833333       0.00000000 </v>
   <v>       0.45833333       0.25000000       0.00000000 </v>
   <v>      -0.25000000      -0.29166667       0.00000000 </v>
   <v>      -0.45833333       0.29166667       0.00000000 </v>
   <v>      -0.16666667       0.45833333       0.00000000 </v>
   <v>       0.29166667       0.16666667       0.00000000 </v>
   <v>      -0.29166667       0.45833333       0.00000000 </v>
   <v>      -0.45833333       0.16666667       0.00000000 </v>
   <v>      -0.16666667      -0.29166667       0.00000000 </v>
   <v>      -0.37500000       0.29166667       0.00000000 </v>
   <v>      -0.08333333       0.37500000       0.00000000 </v>
   <v>       0.29166667       0.08333333       0.00000000 </v>
   <v>      -0.29166667       0.37500000       0.00000000 </v>
   <v>      -0.37500000       0.08333333       0.00000000 </v>
   <v>      -0.08333333      -0.29166667       0.00000000 </v>
   <v>      -0.29166667       0.29166667       0.00000000 </v>
   <v>       0.00000000       0.29166667       0.00000000 </v>
   <v>       0.29166667       0.00000000       0.00000000 </v>
   <v>       0.37500000       0.37500000       0.00000000 </v>
   <v>      -0.25000000      -0.37500000       0.00000000 </v>
   <v>       0.37500000       0.25000000       0.00000000 </v>
   <v>       0.45833333       0.37500000       0.00000000 </v>
   <v>      -0.16666667      -0.45833333       0.00000000 </v>
   <v>       0.37500000       0.16666667       0.00000000 </v>
   <v>      -0.37500000      -0.45833333       0.00000000 </v>
   <v>       0.45833333       0.16666667       0.00000000 </v>
   <v>      -0.16666667      -0.37500000       0.00000000 </v>
   <v>      -0.45833333       0.37500000       0.00000000 </v>
   <v>      -0.08333333       0.45833333       0.00000000 </v>
   <v>       0.37500000       0.08333333       0.00000000 </v>
   <v>      -0.37500000       0.45833333       0.00000000 </v>
   <v>      -0.45833333       0.08333333       0.00000000 </v>
   <v>      -0.08333333      -0.37500000       0.00000000 </v>
   <v>      -0.37500000       0.37500000       0.00000000 </v>
   <v>       0.00000000       0.37500000       0.00000000 </v>
   <v>       0.37500000       0.00000000       0.00000000 </v>
   <v>       0.45833333       0.45833333       0.00000000 </v>
   <v>      -0.08333333      -0.45833333       0.00000000 </v>
   <v>       0.45833333       0.08333333       0.00000000 </v>
   <v>      -0.45833333       0.45833333       0.00000000 </v>
   <v>       0.00000000       0.45833333       0.00000000 </v>
   <v>       0.45833333       0.00000000       0.00000000 </v>
  </varray>
  <varray name="weights" >
   <v>       0.00462963 </v>
   <v>       0.00462963 </v>
   <v>       0.00462963 </v>
   <v>       0.00462963 </v>
   <v>       0.00462963 </v>
   <v>       0.00462963 </v>
   <v>       0.00462963 </v>
   <v>       0.00462963 </v>
   <v>       0.00462963 </v>
   <v>       0.00462963 </v>
   <v>       0.00462963 </v>
   <v>       0.00462963 </v>
   <v>       0.00462963 </v>
   <v>       0.00462963 </v>
   <v>       0.00462963 </v>
   <v>       0.00462963 </v>
   <v>       0.00462963 </v>
   <v>       0.00462963 </v>
   <v>       0.00462963 </v>
   <v>       0.00462963 </v>
   <v>       0.00462963 </v>
   <v>       0.00462963 </v>
   <v>       0.00462963 </v>
   <v>       0.00462963 </v>
   <v>       0.00462963 </v>
   <v>       0.00462963 </v>
   <v>       0.00462963 </v>
   <v>       0.00462963 </v>
   <v>       0.00462963 </v>
   <v>       0.00462963 </v>
   <v>       0.00462963 </v>
   <v>       0.00462963 </v>
   <v>       0.00462963 </v>
   <v>       0.00462963 </v>
   <v>       0.00462963 </v>
   <v>       0.00462963 </v>
   <v>       0.00462963 </v>
   <v>       0.00462963 </v>
   <v>       0.00462963 </v>
   <v>       0.00462963 </v>
   <v>       0.00462963 </v>
   <v>       0.00462963 </v>
   <v>       0.00462963 </v>
   <v>       0.00462963 </v>
   <v>       0.00462963 </v>
   <v>       0.00462963 </v>
   <v>       0.00462963 </v>
   <v>       0.00462963 </v>
   <v>       0.00462963 </v>
   <v>       0.00462963 </v>
   <v>       0.00462963 </v>
   <v>       0.00462963 </v>
   <v>       0.00462963 </v>
   <v>       0.00462963 </v>
   <v>       0.00462963 </v>
   <v>       0.00462963 </v>
   <v>       0.00462963 </v>
   <v>       0.00462963 </v>
   <v>       0.00462963 </v>
   <v>       0.00462963 </v>
   <v>       0.00462963 </v>
   <v>       0.00462963 </v>
   <v>       0.00462963 </v>
   <v>       0.00462963 </v>
   <v>       0.00462963 </v>
   <v>       0.00462963 </v>
   <v>       0.00462963 </v>
   <v>       0.00462963 </v>
   <v>       0.00462963 </v>
   <v>       0.00462963 </v>
   <v>       0.00462963 </v>
   <v>       0.00462963 </v>
   <v>       0.00462963 </v>
   <v>       0.00462963 </v>
   <v>       0.00462963 </v>
   <v>       0.00462963 </v>
   <v>       0.00462963 </v>
   <v>       0.00462963 </v>
   <v>       0.00462963 </v>
   <v>       0.00462963 </v>
   <v>       0.00462963 </v>
   <v>       0.00462963 </v>
   <v>       0.00462963 </v>
   <v>       0.00462963 </v>
   <v>       0.00462963 </v>
   <v>       0.00462963 </v>
   <v>       0.00462963 </v>
   <v>       0.00462963 </v>
   <v>       0.00462963 </v>
   <v>       0.00462963 </v>
   <v>       0.00462963 </v>
   <v>       0.00462963 </v>
   <v>       0.00462963 </v>
   <v>       0.00462963 </v>
   <v>       0.00462963 </v>
   <v>       0.00462963 </v>
   <v>       0.00462963 </v>
   <v>       0.00462963 </v>
   <v>       0.00462963 </v>
   <v>       0.00462963 </v>
   <v>       0.00462963 </v>
   <v>       0.00462963 </v>
   <v>       0.00462963 </v>
   <v>       0.00462963 </v>
   <v>       0.00462963 </v>
   <v>       0.00462963 </v>
   <v>       0.00462963 </v>
   <v>       0.00462963 </v>
   <v>       0.00462963 </v>
   <v>       0.00462963 </v>
   <v>       0.00462963 </v>
   <v>       0.00462963 </v>
   <v>       0.00462963 </v>
   <v>       0.00462963 </v>
   <v>       0.00462963 </v>
   <v>       0.00462963 </v>
   <v>       0.00462963 </v>
   <v>       0.00462963 </v>
   <v>       0.00462963 </v>
   <v>       0.00462963 </v>
   <v>       0.00462963 </v>
   <v>       0.00462963 </v>
   <v>       0.00462963 </v>
   <v>       0.00462963 </v>
   <v>       0.00462963 </v>
   <v>       0.00462963 </v>
   <v>       0.00462963 </v>
   <v>       0.00462963 </v>
   <v>       0.00462963 </v>
   <v>       0.00462963 </v>
   <v>       0.00462963 </v>
   <v>       0.00462963 </v>
   <v>       0.00462963 </v>
   <v>       0.00462963 </v>
   <v>       0.00462963 </v>
   <v>       0.00462963 </v>
   <v>       0.00462963 </v>
   <v>       0.00462963 </v>
   <v>       0.00462963 </v>
   <v>       0.00462963 </v>
   <v>       0.00462963 </v>
   <v>       0.00462963 </v>
   <v>       0.00462963 </v>
   <v>       0.00462963 </v>
   <v>       0.00462963 </v>
   <v>       0.00462963 </v>
   <v>       0.00462963 </v>
   <v>       0.00462963 </v>
   <v>       0.00462963 </v>
   <v>       0.00462963 </v>
   <v>       0.00462963 </v>
   <v>       0.00462963 </v>
   <v>       0.00462963 </v>
   <v>       0.00462963 </v>
   <v>       0.00462963 </v>
   <v>       0.00462963 </v>
   <v>       0.00462963 </v>
   <v>       0.00462963 </v>
   <v>       0.00462963 </v>
   <v>       0.00462963 </v>
   <v>       0.00462963 </v>
   <v>       0.00462963 </v>
   <v>       0.00462963 </v>
   <v>       0.00462963 </v>
   <v>       0.00462963 </v>
   <v>       0.00462963 </v>
   <v>       0.00462963 </v>
   <v>       0.00462963 </v>
   <v>       0.00462963 </v>
   <v>       0.00462963 </v>
   <v>       0.00462963 </v>
   <v>       0.00462963 </v>
   <v>       0.00462963 </v>
   <v>       0.00462963 </v>
   <v>       0.00462963 </v>
   <v>       0.00462963 </v>
   <v>       0.00462963 </v>
   <v>       0.00462963 </v>
   <v>       0.00462963 </v>
   <v>       0.00462963 </v>
   <v>       0.00462963 </v>
   <v>       0.00462963 </v>
   <v>       0.00462963 </v>
   <v>       0.00462963 </v>
   <v>       0.00462963 </v>
   <v>       0.00462963 </v>
   <v>       0.00462963 </v>
   <v>       0.00462963 </v>
   <v>       0.00462963 </v>
   <v>       0.00462963 </v>
   <v>       0.00462963 </v>
   <v>       0.00462963 </v>
   <v>       0.00462963 </v>
   <v>       0.00462963 </v>
   <v>       0.00462963 </v>
   <v>       0.00462963 </v>
   <v>       0.00462963 </v>
   <v>       0.00462963 </v>
   <v>       0.00462963 </v>
   <v>       0.00462963 </v>
   <v>       0.00462963 </v>
   <v>       0.00462963 </v>
   <v>       0.00462963 </v>
   <v>       0.00462963 </v>
   <v>       0.00462963 </v>
   <v>       0.00462963 </v>
   <v>       0.00462963 </v>
   <v>       0.00462963 </v>
   <v>       0.00462963 </v>
   <v>       0.00462963 </v>
   <v>       0.00462963 </v>
   <v>       0.00462963 </v>
   <v>       0.00462963 </v>
   <v>       0.00462963 </v>
   <v>       0.00462963 </v>
   <v>       0.00462963 </v>
  </varray>
 </kpoints>
 <parameters>
  <separator name="general" >
   <i type="string" name="SYSTEM">unknown system</i>
   <i type="logical" name="LCOMPAT"> F  </i>
  </separator>
  <separator name="electronic" >
   <i type="string" name="PREC">accura</i>
   <i name="ENMAX">    500.00000000</i>
   <i name="ENAUG">    446.01400000</i>
   <i name="EDIFF">      0.00000001</i>
   <i type="int" name="IALGO">    38</i>
   <i type="int" name="IWAVPR">    10</i>
   <i type="int" name="NBANDS">   140</i>
   <i name="NELECT">    234.00000000</i>
   <i type="int" name="TURBO">     0</i>
   <i type="int" name="IRESTART">     0</i>
   <i type="int" name="NREBOOT">     0</i>
   <i type="int" name="NMIN">     0</i>
   <i name="EREF">      0.00000000</i>
   <separator name="electronic smearing" >
    <i type="int" name="ISMEAR">     0</i>
    <i name="SIGMA">      0.10000000</i>
    <i name="KSPACING">      0.50000000</i>
    <i type="logical" name="KGAMMA"> T  </i>
   </separator>
   <separator name="electronic projectors" >
    <i type="logical" name="LREAL"> F  </i>
    <v name="ROPT">      0.00000000      0.00000000</v>
    <i type="int" name="LMAXPAW">  -100</i>
    <i type="int" name="LMAXMIX">     2</i>
    <i type="logical" name="NLSPLINE"> F  </i>
   </separator>
   <separator name="electronic startup" >
    <i type="int" name="ISTART">     0</i>
    <i type="int" name="ICHARG">     2</i>
    <i type="int" name="INIWAV">     1</i>
   </separator>
   <separator name="electronic spin" >
    <i type="int" name="ISPIN">     1</i>
    <i type="logical" name="LNONCOLLINEAR"> F  </i>
    <v name="MAGMOM">      1.00000000      1.00000000      1.00000000      1.00000000      1.00000000      1.00000000      1.00000000      1.00000000      1.00000000      1.00000000      1.00000000      1.00000000      1.00000000      1.00000000      1.00000000      1.00000000      1.00000000      1.00000000      1.00000000      1.00000000
      1.00000000      1.00000000      1.00000000      1.00000000      1.00000000      1.00000000      1.00000000</v>
    <i name="NUPDOWN">     -1.00000000</i>
    <i type="logical" name="LSORBIT"> F  </i>
    <v name="SAXIS">      0.00000000      0.00000000      1.00000000</v>
    <i type="logical" name="LSPIRAL"> F  </i>
    <v name="QSPIRAL">      0.00000000      0.00000000      0.00000000</v>
    <i type="logical" name="LZEROZ"> F  </i>
   </separator>
   <separator name="electronic exchange-correlation" >
    <i type="logical" name="LASPH"> F  </i>
    <i type="logical" name="LMETAGGA"> F  </i>
   </separator>
   <separator name="electronic convergence" >
    <i type="int" name="NELM">    60</i>
    <i type="int" name="NELMDL">    -5</i>
    <i type="int" name="NELMIN">     2</i>
    <i name="ENINI">    500.00000000</i>
    <separator name="electronic convergence detail" >
     <i type="logical" name="LDIAG"> T  </i>
     <i type="logical" name="LSUBROT"> F  </i>
     <i name="WEIMIN">      0.00000000</i>
     <i name="EBREAK">      0.00000000</i>
     <i name="DEPER">      0.30000000</i>
     <i type="int" name="NRMM">     4</i>
     <i name="TIME">      0.40000000</i>
    </separator>
   </separator>
   <separator name="electronic mixer" >
    <i name="AMIX">      0.40000000</i>
    <i name="BMIX">      1.00000000</i>
    <i name="AMIN">      0.10000000</i>
    <i name="AMIX_MAG">      1.60000000</i>
    <i name="BMIX_MAG">      1.00000000</i>
    <separator name="electronic mixer details" >
     <i type="int" name="IMIX">     4</i>
     <i type="logical" name="MIXFIRST"> F  </i>
     <i type="int" name="MAXMIX">   -45</i>
     <i name="WC">    100.00000000</i>
     <i type="int" name="INIMIX">     1</i>
     <i type="int" name="MIXPRE">     1</i>
     <i type="int" name="MREMOVE">     5</i>
    </separator>
   </separator>
   <separator name="electronic dipolcorrection" >
    <i type="logical" name="LDIPOL"> F  </i>
    <i type="logical" name="LMONO"> F  </i>
    <i type="int" name="IDIPOL">     0</i>
    <i name="EPSILON">      1.00000000</i>
    <v name="DIPOL">   -100.00000000   -100.00000000   -100.00000000</v>
    <i name="EFIELD">      0.00000000</i>
   </separator>
  </separator>
  <separator name="grids" >
   <i type="int" name="NGX">    70</i>
   <i type="int" name="NGY">    70</i>
   <i type="int" name="NGZ">   112</i>
   <i type="int" name="NGXF">   140</i>
   <i type="int" name="NGYF">   140</i>
   <i type="int" name="NGZF">   224</i>
   <i type="logical" name="ADDGRID"> F  </i>
  </separator>
  <separator name="ionic" >
   <i type="int" name="NSW">     0</i>
   <i type="int" name="IBRION">    -1</i>
   <i type="int" name="MDALGO">     0</i>
   <i type="int" name="ISIF">     2</i>
   <i name="PSTRESS">      0.00000000</i>
   <i name="EDIFFG">      0.00000010</i>
   <i type="int" name="NFREE">     0</i>
   <i name="POTIM">      0.50000000</i>
   <i name="SMASS">     -3.00000000</i>
   <i name="SCALEE">      1.00000000</i>
  </separator>
  <separator name="ionic md" >
   <i name="TEBEG">      0.00010000</i>
   <i name="TEEND">      0.00010000</i>
   <i type="int" name="NBLOCK">     1</i>
   <i type="int" name="KBLOCK">     1</i>
   <i type="int" name="NPACO">   256</i>
   <i name="APACO">     16.00000000</i>
  </separator>
  <separator name="symmetry" >
   <i type="int" name="ISYM">     2</i>
   <i name="SYMPREC">      0.00001000</i>
  </separator>
  <separator name="dos" >
   <i type="int" name="LORBIT">     0</i>
   <v name="RWIGS">     -1.00000000     -1.00000000</v>
   <i type="int" name="NEDOS">   301</i>
   <i name="EMIN">     10.00000000</i>
   <i name="EMAX">    -10.00000000</i>
   <i name="EFERMI">      0.00000000</i>
  </separator>
  <separator name="writing" >
   <i type="int" name="NWRITE">     2</i>
   <i type="logical" name="LWAVE"> F  </i>
   <i type="logical" name="LDOWNSAMPLE"> F  </i>
   <i type="logical" name="LCHARG"> F  </i>
   <i type="logical" name="LPARD"> F  </i>
   <i type="logical" name="LVTOT"> F  </i>
   <i type="logical" name="LVHAR"> F  </i>
   <i type="logical" name="LELF"> F  </i>
   <i type="logical" name="LOPTICS"> F  </i>
   <v name="STM">      0.00000000      0.00000000      0.00000000      0.00000000      0.00000000      0.00000000      0.00000000</v>
  </separator>
  <separator name="performance" >
   <i type="int" name="NPAR">     2</i>
   <i type="int" name="NSIM">     4</i>
   <i type="int" name="NBLK">    -1</i>
   <i type="logical" name="LPLANE"> T  </i>
   <i type="logical" name="LSCALAPACK"> T  </i>
   <i type="logical" name="LSCAAWARE"> F  </i>
   <i type="logical" name="LSCALU"> F  </i>
   <i type="logical" name="LASYNC"> F  </i>
   <i type="logical" name="LORBITALREAL"> F  </i>
  </separator>
  <separator name="miscellaneous" >
   <i type="int" name="IDIOT">     3</i>
   <i type="int" name="ISPECIAL">     0</i>
   <i type="logical" name="LMUSIC"> F  </i>
   <v name="POMASS">     95.94000000     32.06600000</v>
   <v name="DARWINR">      0.00000000      0.00000000</v>
   <v name="DARWINV">      1.00000000      1.00000000</v>
   <i type="logical" name="LCORR"> T  </i>
  </separator>
  <i type="logical" name="GGA_COMPAT"> T  </i>
  <i type="logical" name="LBERRY"> F  </i>
  <i type="int" name="ICORELEVEL">     0</i>
  <i type="logical" name="LDAU"> F  </i>
  <i type="int" name="I_CONSTRAINED_M">     0</i>
  <separator name="electronic exchange-correlation" >
   <i type="string" name="GGA">--</i>
   <i type="int" name="VOSKOWN">     0</i>
   <i type="logical" name="LHFCALC"> F  </i>
   <i type="string" name="PRECFOCK"></i>
   <i type="logical" name="LSYMGRAD"> F  </i>
   <i type="logical" name="LHFONE"> F  </i>
   <i type="logical" name="LRHFCALC"> F  </i>
   <i type="logical" name="LTHOMAS"> F  </i>
   <i type="logical" name="LMODELHF"> F  </i>
   <i name="ENCUT4O">     -1.00000000</i>
   <i type="int" name="EXXOEP">     0</i>
   <i type="int" name="FOURORBIT">     0</i>
   <i name="AEXX">      0.00000000</i>
   <i name="HFALPHA">      0.00000000</i>
   <i name="MCALPHA">      0.00000000</i>
   <i name="ALDAX">      1.00000000</i>
   <i name="AGGAX">      1.00000000</i>
   <i name="ALDAC">      1.00000000</i>
   <i name="AGGAC">      1.00000000</i>
   <i type="int" name="NKREDX">     1</i>
   <i type="int" name="NKREDY">     1</i>
   <i type="int" name="NKREDZ">     1</i>
   <i type="logical" name="SHIFTRED"> F  </i>
   <i type="logical" name="ODDONLY"> F  </i>
   <i type="logical" name="EVENONLY"> F  </i>
   <i type="int" name="LMAXFOCK">     0</i>
   <i type="int" name="NMAXFOCKAE">     0</i>
   <i type="logical" name="LFOCKAEDFT"> F  </i>
   <i name="HFSCREEN">      0.00000000</i>
   <i name="HFSCREENC">      0.00000000</i>
   <i type="int" name="NBANDSGWLOW">     0</i>
  </separator>
  <separator name="vdW DFT" >
   <i type="logical" name="LUSE_VDW"> F  </i>
   <i name="Zab_VDW">     -0.84910000</i>
   <i name="PARAM1">      0.12340000</i>
   <i name="PARAM2">      1.00000000</i>
   <i name="PARAM3">      0.00000000</i>
  </separator>
  <separator name="model GW" >
   <i type="int" name="MODEL_GW">     0</i>
   <i name="MODEL_EPS0">     26.33661408</i>
   <i name="MODEL_ALPHA">      1.00000000</i>
  </separator>
  <separator name="linear response parameters" >
   <i type="logical" name="LEPSILON"> F  </i>
   <i type="logical" name="LRPA"> F  </i>
   <i type="logical" name="LNABLA"> F  </i>
   <i type="logical" name="LVEL"> F  </i>
   <i type="int" name="KINTER">     0</i>
   <i name="CSHIFT">      0.10000000</i>
   <i name="OMEGAMAX">     -1.00000000</i>
   <i name="DEG_THRESHOLD">      0.00200000</i>
   <i name="RTIME">     -0.10000000</i>
   <i name="WPLASMAI">      0.00000000</i>
   <v name="DFIELD">      0.00000000      0.00000000      0.00000000</v>
   <v name="WPLASMA">      0.00000000      0.00000000      0.00000000      0.00000000      0.00000000      0.00000000      0.00000000      0.00000000      0.00000000</v>
  </separator>
  <separator name="orbital magnetization" >
   <i type="logical" name="NUCIND"> F  </i>
   <v name="MAGPOS">      0.00000000      0.00000000      0.00000000</v>
   <i type="logical" name="LNICSALL"> T  </i>
   <i type="logical" name="ORBITALMAG"> F  </i>
   <i type="logical" name="LMAGBLOCH"> F  </i>
   <i type="logical" name="LCHIMAG"> F  </i>
   <i type="logical" name="LGAUGE"> T  </i>
   <i type="int" name="MAGATOM">     0</i>
   <v name="MAGDIPOL">      0.00000000      0.00000000      0.00000000</v>
   <v name="AVECCONST">      0.00000000      0.00000000      0.00000000</v>
  </separator>
  <separator name="response functions" >
   <i type="logical" name="LADDER"> F  </i>
   <i type="logical" name="LRPAFORCE"> F  </i>
   <i type="logical" name="LFXC"> F  </i>
   <i type="logical" name="LHARTREE"> T  </i>
   <i type="int" name="IBSE">     0</i>
   <v type="int" name="KPOINT">    -1     0     0     0</v>
   <i type="logical" name="LTCTE"> F  </i>
   <i type="logical" name="LTETE"> F  </i>
   <i type="logical" name="LTRIPLET"> F  </i>
   <i type="logical" name="LFXCEPS"> F  </i>
   <i type="logical" name="LFXHEG"> F  </i>
   <i type="int" name="NATURALO">     2</i>
   <i type="logical" name="L2ORDER"> F  </i>
   <i type="logical" name="LMP2LT"> F  </i>
   <i type="logical" name="LUSEW"> F  </i>
   <i name="ENCUTGW">     -2.00000000</i>
   <i name="ENCUTGWSOFT">     -2.00000000</i>
   <i name="ENCUTLF">     -1.00000000</i>
   <i type="int" name="LMAXMP2">    -1</i>
   <i name="SCISSOR">      0.00000000</i>
   <i type="int" name="NOMEGA">     0</i>
   <i type="int" name="NOMEGAR">     0</i>
   <i type="int" name="NBANDSGW">    -1</i>
   <i type="int" name="NBANDSO">    -1</i>
   <i type="int" name="NBANDSV">    -1</i>
   <i type="int" name="NELM">     1</i>
   <i type="int" name="NELMHF">     1</i>
   <i type="int" name="DIM">     3</i>
   <i type="int" name="ANTIRES">     0</i>
   <i name="OMEGAMAX">    -30.00000000</i>
   <i name="OMEGAMIN">    -30.00000000</i>
   <i name="OMEGATL">   -200.00000000</i>
   <i type="int" name="OMEGAGRID">   140</i>
   <i name="CSHIFT">     -0.10000000</i>
   <i type="logical" name="SELFENERGY"> F  </i>
   <i type="logical" name="LSPECTRAL"> F  </i>
   <i type="logical" name="LSPECTRALGW"> F  </i>
   <i type="logical" name="LSINGLES"> F  </i>
   <i type="logical" name="LFERMIGW"> F  </i>
   <i type="logical" name="ODDONLYGW"> F  </i>
   <i type="logical" name="EVENONLYGW"> F  </i>
   <i type="int" name="NKREDLFX">     1</i>
   <i type="int" name="NKREDLFY">     1</i>
   <i type="int" name="NKREDLFZ">     1</i>
   <i type="int" name="MAXMEM">  2800</i>
   <i type="int" name="TELESCOPE">     0</i>
   <i type="int" name="TAUPAR">     1</i>
   <i type="int" name="OMEGAPAR">    -1</i>
   <i name="LAMBDA">      1.00000000</i>
  </separator>
  <separator name="External order field" >
   <i name="OFIELD_KAPPA">      0.00000000</i>
   <v name="OFIELD_K">      0.00000000      0.00000000      0.00000000</v>
   <i name="OFIELD_Q6_NEAR">      0.00000000</i>
   <i name="OFIELD_Q6_FAR">      0.00000000</i>
   <i name="OFIELD_A">      0.00000000</i>
  </separator>
 </parameters>
 <atominfo>
  <atoms>      27 </atoms>
  <types>       2 </types>
  <array name="atoms" >
   <dimension dim="1">ion</dimension>
   <field type="string">element</field>
   <field type="int">atomtype</field>
   <set>
    <rc><c>Mo</c><c>   1</c></rc>
    <rc><c>Mo</c><c>   1</c></rc>
    <rc><c>Mo</c><c>   1</c></rc>
    <rc><c>Mo</c><c>   1</c></rc>
    <rc><c>Mo</c><c>   1</c></rc>
    <rc><c>Mo</c><c>   1</c></rc>
    <rc><c>Mo</c><c>   1</c></rc>
    <rc><c>Mo</c><c>   1</c></rc>
    <rc><c>Mo</c><c>   1</c></rc>
    <rc><c>S </c><c>   2</c></rc>
    <rc><c>S </c><c>   2</c></rc>
    <rc><c>S </c><c>   2</c></rc>
    <rc><c>S </c><c>   2</c></rc>
    <rc><c>S </c><c>   2</c></rc>
    <rc><c>S </c><c>   2</c></rc>
    <rc><c>S </c><c>   2</c></rc>
    <rc><c>S </c><c>   2</c></rc>
    <rc><c>S </c><c>   2</c></rc>
    <rc><c>S </c><c>   2</c></rc>
    <rc><c>S </c><c>   2</c></rc>
    <rc><c>S </c><c>   2</c></rc>
    <rc><c>S </c><c>   2</c></rc>
    <rc><c>S </c><c>   2</c></rc>
    <rc><c>S </c><c>   2</c></rc>
    <rc><c>S </c><c>   2</c></rc>
    <rc><c>S </c><c>   2</c></rc>
    <rc><c>S </c><c>   2</c></rc>
   </set>
  </array>
  <array name="atomtypes" >
   <dimension dim="1">type</dimension>
   <field type="int">atomspertype</field>
   <field type="string">element</field>
   <field>mass</field>
   <field>valence</field>
   <field type="string">pseudopotential</field>
   <set>
    <rc><c>   9</c><c>Mo</c><c>     95.94000000</c><c>     14.00000000</c><c>  PAW_PBE Mo_sv 02Feb2006               </c></rc>
    <rc><c>  18</c><c>S </c><c>     32.06600000</c><c>      6.00000000</c><c>  PAW_PBE S 06Sep2000                   </c></rc>
   </set>
  </array>
 </atominfo>
 <structure name="initialpos" >
  <crystal>
   <varray name="basis" >
    <v>       9.55158141       0.00000000       0.00000000 </v>
    <v>      -4.77579070       8.27191214       0.00000000 </v>
    <v>       0.00000000       0.00000000      15.00000000 </v>
   </varray>
   <i name="volume">   1185.14763341 </i>
   <varray name="rec_basis" >
    <v>       0.10469471       0.06044552       0.00000000 </v>
    <v>       0.00000000       0.12089103       0.00000000 </v>
    <v>       0.00000000       0.00000000       0.06666667 </v>
   </varray>
  </crystal>
  <varray name="positions" >
   <v>       0.22222223       0.11111111       0.25000000 </v>
   <v>       0.55555556       0.11111111       0.25000000 </v>
   <v>       0.88888890       0.11111111       0.25000000 </v>
   <v>       0.22222223       0.44444445       0.25000000 </v>
   <v>       0.55555556       0.44444445       0.25000000 </v>
   <v>       0.88888890       0.44444445       0.25000000 </v>
   <v>       0.22222223       0.77777778       0.25000000 </v>
   <v>       0.55555556       0.77777778       0.25000000 </v>
   <v>       0.88888890       0.77777778       0.25000000 </v>
   <v>       0.11167345       0.22222223       0.35471447 </v>
   <v>       0.44444445       0.22222223       0.35415213 </v>
   <v>       0.77777778       0.22222223       0.35415213 </v>
   <v>       0.11111111       0.55555556       0.35415213 </v>
   <v>       0.44444445       0.55555556       0.35415213 </v>
   <v>       0.77777778       0.55555556       0.35415213 </v>
   <v>       0.11111111       0.88888890       0.35415213 </v>
   <v>       0.44444445       0.88888890       0.35415213 </v>
   <v>       0.77777778       0.88888890       0.35415213 </v>
   <v>       0.11111111       0.22222223       0.14584787 </v>
   <v>       0.44444445       0.22222223       0.14584787 </v>
   <v>       0.77777778       0.22222223       0.14584787 </v>
   <v>       0.11111111       0.55555556       0.14584787 </v>
   <v>       0.44444445       0.55555556       0.14584787 </v>
   <v>       0.77777778       0.55555556       0.14584787 </v>
   <v>       0.11111111       0.88888890       0.14584787 </v>
   <v>       0.44444445       0.88888890       0.14584787 </v>
   <v>       0.77777778       0.88888890       0.14584787 </v>
  </varray>
 </structure>
 <calculation>
  <scstep>
   <time name="dav">  358.68  358.68</time>
   <time name="total">  358.97  359.20</time>
   <energy>
    <i name="alphaZ">    323.32137470 </i>
    <i name="ewald">  24784.22233339 </i>
    <i name="hartreedc"> -44136.38534148 </i>
    <i name="XCdc">    822.24423542 </i>
    <i name="pawpsdc">  17395.10119161 </i>
    <i name="pawaedc"> -17171.31696658 </i>
    <i name="eentropy">     -0.05722407 </i>
    <i name="bandstr">  -1774.51015091 </i>
    <i name="atom">  21743.29182934 </i>
    <i name="e_fr_energy">   1985.91128141 </i>
    <i name="e_wo_entrp">   1985.96850548 </i>
    <i name="e_0_energy">   1985.93989344 </i>
   </energy>
  </scstep>
  <scstep>
   <time name="dav">  366.08  366.09</time>
   <time name="total">  366.09  366.10</time>
   <energy>
    <i name="e_fr_energy">    -29.88327157 </i>
    <i name="e_wo_entrp">    -29.88327157 </i>
    <i name="e_0_energy">    -29.88327157 </i>
   </energy>
  </scstep>
  <scstep>
   <time name="dav">  337.99  337.99</time>
   <time name="total">  338.00  338.00</time>
   <energy>
    <i name="e_fr_energy">   -202.62627264 </i>
    <i name="e_wo_entrp">   -202.62627264 </i>
    <i name="e_0_energy">   -202.62627264 </i>
   </energy>
  </scstep>
  <scstep>
   <time name="dav">  376.44  376.45</time>
   <time name="total">  376.45  376.46</time>
   <energy>
    <i name="e_fr_energy">   -210.17694448 </i>
    <i name="e_wo_entrp">   -210.17694448 </i>
    <i name="e_0_energy">   -210.17694448 </i>
   </energy>
  </scstep>
  <scstep>
   <time name="dav">  391.68  391.68</time>
   <time name="total">  401.72  401.73</time>
   <energy>
    <i name="e_fr_energy">   -210.39757128 </i>
    <i name="e_wo_entrp">   -210.39757128 </i>
    <i name="e_0_energy">   -210.39757128 </i>
   </energy>
  </scstep>
  <scstep>
   <time name="dav">  330.49  330.50</time>
   <time name="total">  340.73  340.74</time>
   <energy>
    <i name="e_fr_energy">   -200.19363599 </i>
    <i name="e_wo_entrp">   -200.19363599 </i>
    <i name="e_0_energy">   -200.19363599 </i>
   </energy>
  </scstep>
  <scstep>
   <time name="dav">  330.24  330.24</time>
   <time name="total">  340.39  340.40</time>
   <energy>
    <i name="e_fr_energy">   -198.05896781 </i>
    <i name="e_wo_entrp">   -198.05896781 </i>
    <i name="e_0_energy">   -198.05896781 </i>
   </energy>
  </scstep>
  <scstep>
   <time name="dav">  350.41  350.40</time>
   <time name="total">  360.54  360.53</time>
   <energy>
    <i name="e_fr_energy">   -196.63829192 </i>
    <i name="e_wo_entrp">   -196.63829192 </i>
    <i name="e_0_energy">   -196.63829192 </i>
   </energy>
  </scstep>
  <scstep>
   <time name="dav">  377.36  377.35</time>
   <time name="total">  387.50  387.50</time>
   <energy>
    <i name="e_fr_energy">   -196.67928500 </i>
    <i name="e_wo_entrp">   -196.67928500 </i>
    <i name="e_0_energy">   -196.67928500 </i>
   </energy>
  </scstep>
  <scstep>
   <time name="dav">  354.24  354.24</time>
   <time name="total">  364.40  364.41</time>
   <energy>
    <i name="e_fr_energy">   -196.62808520 </i>
    <i name="e_wo_entrp">   -196.62808520 </i>
    <i name="e_0_energy">   -196.62808520 </i>
   </energy>
  </scstep>
  <scstep>
   <time name="dav">  380.90  380.90</time>
   <time name="total">  390.83  390.83</time>
   <energy>
    <i name="e_fr_energy">   -196.62322716 </i>
    <i name="e_wo_entrp">   -196.62322716 </i>
    <i name="e_0_energy">   -196.62322716 </i>
   </energy>
  </scstep>
  <scstep>
   <time name="dav">  374.37  374.36</time>
   <time name="total">  384.31  384.30</time>
   <energy>
    <i name="e_fr_energy">   -196.61773086 </i>
    <i name="e_wo_entrp">   -196.61773086 </i>
    <i name="e_0_energy">   -196.61773086 </i>
   </energy>
  </scstep>
  <scstep>
   <time name="dav">  358.83  358.82</time>
   <time name="total">  368.77  368.76</time>
   <energy>
    <i name="e_fr_energy">   -196.61697749 </i>
    <i name="e_wo_entrp">   -196.61697749 </i>
    <i name="e_0_energy">   -196.61697749 </i>
   </energy>
  </scstep>
  <scstep>
   <time name="dav">  349.44  349.44</time>
   <time name="total">  359.38  359.38</time>
   <energy>
    <i name="e_fr_energy">   -196.61583768 </i>
    <i name="e_wo_entrp">   -196.61583768 </i>
    <i name="e_0_energy">   -196.61583768 </i>
   </energy>
  </scstep>
  <scstep>
   <time name="dav">  340.02  340.01</time>
   <time name="total">  349.93  349.93</time>
   <energy>
    <i name="e_fr_energy">   -196.61505133 </i>
    <i name="e_wo_entrp">   -196.61505133 </i>
    <i name="e_0_energy">   -196.61505133 </i>
   </energy>
  </scstep>
  <scstep>
   <time name="dav">  343.42  343.42</time>
   <time name="total">  353.27  353.26</time>
   <energy>
    <i name="e_fr_energy">   -196.61565025 </i>
    <i name="e_wo_entrp">   -196.61565025 </i>
    <i name="e_0_energy">   -196.61565025 </i>
   </energy>
  </scstep>
  <scstep>
   <time name="dav">  348.03  348.03</time>
   <time name="total">  357.88  357.87</time>
   <energy>
    <i name="e_fr_energy">   -196.61652756 </i>
    <i name="e_wo_entrp">   -196.61652756 </i>
    <i name="e_0_energy">   -196.61652756 </i>
   </energy>
  </scstep>
  <scstep>
   <time name="dav">  369.95  369.94</time>
   <time name="total">  379.78  379.77</time>
   <energy>
    <i name="e_fr_energy">   -196.61725214 </i>
    <i name="e_wo_entrp">   -196.61725214 </i>
    <i name="e_0_energy">   -196.61725214 </i>
   </energy>
  </scstep>
  <scstep>
   <time name="dav">  364.18  364.17</time>
   <time name="total">  374.02  374.12</time>
   <energy>
    <i name="e_fr_energy">   -196.61754968 </i>
    <i name="e_wo_entrp">   -196.61754968 </i>
    <i name="e_0_energy">   -196.61754968 </i>
   </energy>
  </scstep>
  <scstep>
   <time name="dav">  337.45  337.44</time>
   <time name="total">  347.29  347.29</time>
   <energy>
    <i name="e_fr_energy">   -196.61810753 </i>
    <i name="e_wo_entrp">   -196.61810753 </i>
    <i name="e_0_energy">   -196.61810753 </i>
   </energy>
  </scstep>
  <scstep>
   <time name="dav">  371.12  371.12</time>
   <time name="total">  381.03  381.03</time>
   <energy>
    <i name="e_fr_energy">   -196.61822214 </i>
    <i name="e_wo_entrp">   -196.61822214 </i>
    <i name="e_0_energy">   -196.61822214 </i>
   </energy>
  </scstep>
  <scstep>
   <time name="dav">  341.01  341.00</time>
   <time name="total">  350.93  350.93</time>
   <energy>
    <i name="e_fr_energy">   -196.61829227 </i>
    <i name="e_wo_entrp">   -196.61829227 </i>
    <i name="e_0_energy">   -196.61829227 </i>
   </energy>
  </scstep>
  <scstep>
   <time name="dav">  328.78  328.77</time>
   <time name="total">  338.71  338.71</time>
   <energy>
    <i name="e_fr_energy">   -196.61833333 </i>
    <i name="e_wo_entrp">   -196.61833333 </i>
    <i name="e_0_energy">   -196.61833333 </i>
   </energy>
  </scstep>
  <scstep>
   <time name="dav">  337.03  337.03</time>
   <time name="total">  346.95  346.95</time>
   <energy>
    <i name="e_fr_energy">   -196.61835503 </i>
    <i name="e_wo_entrp">   -196.61835503 </i>
    <i name="e_0_energy">   -196.61835503 </i>
   </energy>
  </scstep>
  <scstep>
   <time name="dav">  298.17  298.17</time>
   <time name="total">  308.08  308.08</time>
   <energy>
    <i name="e_fr_energy">   -196.61835782 </i>
    <i name="e_wo_entrp">   -196.61835782 </i>
    <i name="e_0_energy">   -196.61835782 </i>
   </energy>
  </scstep>
  <scstep>
   <time name="dav">  252.73  252.72</time>
   <time name="total">  262.60  262.60</time>
   <energy>
    <i name="e_fr_energy">   -196.61835892 </i>
    <i name="e_wo_entrp">   -196.61835892 </i>
    <i name="e_0_energy">   -196.61835892 </i>
   </energy>
  </scstep>
  <scstep>
   <time name="dav">  255.86  255.86</time>
   <time name="total">  265.72  265.72</time>
   <energy>
    <i name="e_fr_energy">   -196.61835927 </i>
    <i name="e_wo_entrp">   -196.61835927 </i>
    <i name="e_0_energy">   -196.61835927 </i>
   </energy>
  </scstep>
  <scstep>
   <time name="dav">  258.46  258.46</time>
   <time name="total">  268.32  268.32</time>
   <energy>
    <i name="e_fr_energy">   -196.61835932 </i>
    <i name="e_wo_entrp">   -196.61835932 </i>
    <i name="e_0_energy">   -196.61835932 </i>
   </energy>
  </scstep>
  <scstep>
   <time name="dav">  237.68  237.68</time>
   <time name="total">  247.54  247.54</time>
   <energy>
    <i name="e_fr_energy">   -196.61835934 </i>
    <i name="e_wo_entrp">   -196.61835934 </i>
    <i name="e_0_energy">   -196.61835934 </i>
   </energy>
  </scstep>
  <scstep>
   <time name="dav">  239.07  239.07</time>
   <time name="total">  239.33  239.33</time>
   <energy>
    <i name="alphaZ">    323.32137470 </i>
    <i name="ewald">  24784.22233339 </i>
    <i name="hartreedc"> -44087.74463832 </i>
    <i name="XCdc">    817.13993018 </i>
    <i name="pawpsdc">  26307.39944205 </i>
    <i name="pawaedc"> -26118.16639980 </i>
    <i name="eentropy">     -0.00000000 </i>
    <i name="bandstr">  -3966.08223088 </i>
    <i name="atom">  21743.29182934 </i>
    <i name="e_fr_energy">   -196.61835934 </i>
    <i name="e_wo_entrp">   -196.61835934 </i>
    <i name="e_0_energy">   -196.61835934 </i>
   </energy>
  </scstep>
  <structure>
   <crystal>
    <varray name="basis" >
     <v>       9.55158141       0.00000000       0.00000000 </v>
     <v>      -4.77579070       8.27191214       0.00000000 </v>
     <v>       0.00000000       0.00000000      15.00000000 </v>
    </varray>
    <i name="volume">   1185.14763341 </i>
    <varray name="rec_basis" >
     <v>       0.10469471       0.06044552       0.00000000 </v>
     <v>       0.00000000       0.12089103       0.00000000 </v>
     <v>       0.00000000       0.00000000       0.06666667 </v>
    </varray>
   </crystal>
   <varray name="positions" >
    <v>       0.22222223       0.11111111       0.25000000 </v>
    <v>       0.55555556       0.11111111       0.25000000 </v>
    <v>       0.88888890       0.11111111       0.25000000 </v>
    <v>       0.22222223       0.44444445       0.25000000 </v>
    <v>       0.55555556       0.44444445       0.25000000 </v>
    <v>       0.88888890       0.44444445       0.25000000 </v>
    <v>       0.22222223       0.77777778       0.25000000 </v>
    <v>       0.55555556       0.77777778       0.25000000 </v>
    <v>       0.88888890       0.77777778       0.25000000 </v>
    <v>       0.11167345       0.22222223       0.35471447 </v>
    <v>       0.44444445       0.22222223       0.35415213 </v>
    <v>       0.77777778       0.22222223       0.35415213 </v>
    <v>       0.11111111       0.55555556       0.35415213 </v>
    <v>       0.44444445       0.55555556       0.35415213 </v>
    <v>       0.77777778       0.55555556       0.35415213 </v>
    <v>       0.11111111       0.88888890       0.35415213 </v>
    <v>       0.44444445       0.88888890       0.35415213 </v>
    <v>       0.77777778       0.88888890       0.35415213 </v>
    <v>       0.11111111       0.22222223       0.14584787 </v>
    <v>       0.44444445       0.22222223       0.14584787 </v>
    <v>       0.77777778       0.22222223       0.14584787 </v>
    <v>       0.11111111       0.55555556       0.14584787 </v>
    <v>       0.44444445       0.55555556       0.14584787 </v>
    <v>       0.77777778       0.55555556       0.14584787 </v>
    <v>       0.11111111       0.88888890       0.14584787 </v>
    <v>       0.44444445       0.88888890       0.14584787 </v>
    <v>       0.77777778       0.88888890       0.14584787 </v>
   </varray>
  </structure>
  <varray name="forces" >
   <v>      -0.00145816       0.00579300       0.02270731 </v>
   <v>       0.00068904       0.00051507       0.00147040 </v>
   <v>       0.04514643       0.02089805       0.05333148 </v>
   <v>       0.00876298      -0.02738452       0.03817659 </v>
   <v>       0.00027988       0.00109039       0.00096296 </v>
   <v>       0.00031729      -0.00202230       0.00257278 </v>
   <v>      -0.00013202      -0.00005236       0.00150247 </v>
   <v>       0.00069771       0.00041673       0.00143702 </v>
   <v>      -0.00239674       0.00059465       0.00177101 </v>
   <v>      -0.05826968       0.00019553      -0.11776096 </v>
   <v>       0.00451087      -0.00034604      -0.00428577 </v>
   <v>       0.00260127       0.00003111      -0.00320837 </v>
   <v>       0.00022643      -0.00116716      -0.00328149 </v>
   <v>       0.00078999       0.00273177      -0.00405815 </v>
   <v>      -0.00028154      -0.00012987      -0.00005299 </v>
   <v>       0.00111306      -0.00217691      -0.00379733 </v>
   <v>      -0.00028472       0.00007672       0.00001475 </v>
   <v>      -0.00009936       0.00096339      -0.00349708 </v>
   <v>      -0.00151408       0.00000698       0.01484294 </v>
   <v>      -0.00050467      -0.00044313      -0.00045755 </v>
   <v>       0.00222896      -0.00179636       0.00140319 </v>
   <v>       0.00104272      -0.00093600       0.00022833 </v>
   <v>      -0.00235182      -0.00052065       0.00058051 </v>
   <v>       0.00010470      -0.00012813      -0.00064200 </v>
   <v>      -0.00037627       0.00030868      -0.00073263 </v>
   <v>       0.00010578       0.00007674      -0.00070830 </v>
   <v>      -0.00094804       0.00340463       0.00148087 </v>
  </varray>
  <varray name="stress" >
   <v>      -0.13504416      -0.02053431      -0.10078320 </v>
   <v>      -0.02053426      -0.13511723       0.00043256 </v>
   <v>      -0.10078316       0.00043260      -0.62043686 </v>
  </varray>
  <energy>
   <i name="e_fr_energy">   -196.61835934 </i>
   <i name="e_wo_entrp">   -196.61835934 </i>
   <i name="e_0_energy">     -0.00000000 </i>
  </energy>
  <time name="totalsc">10536.8810537.64</time>
  <eigenvalues>
   <array>
    <dimension dim="1">band</dimension>
    <dimension dim="2">kpoint</dimension>
    <dimension dim="3">spin</dimension>
    <field>eigene</field>
    <field>occ</field>
    <set>
     <set comment="spin 1">
      <set comment="kpoint 1">
       <r>  -61.6038    1.0000 </r>
       <r>  -61.5786    1.0000 </r>
       <r>  -61.5781    1.0000 </r>
       <r>  -61.5763    1.0000 </r>
       <r>  -61.5758    1.0000 </r>
       <r>  -61.5743    1.0000 </r>
       <r>  -61.5738    1.0000 </r>
       <r>  -61.5623    1.0000 </r>
       <r>  -61.5622    1.0000 </r>
       <r>  -35.8371    1.0000 </r>
       <r>  -35.8367    1.0000 </r>
       <r>  -35.8217    1.0000 </r>
       <r>  -35.8207    1.0000 </r>
       <r>  -35.8174    1.0000 </r>
       <r>  -35.8169    1.0000 </r>
       <r>  -35.7961    1.0000 </r>
       <r>  -35.7957    1.0000 </r>
       <r>  -35.7688    1.0000 </r>
       <r>  -35.7683    1.0000 </r>
       <r>  -35.7426    1.0000 </r>
       <r>  -35.6919    1.0000 </r>
       <r>  -35.6917    1.0000 </r>
       <r>  -35.6874    1.0000 </r>
       <r>  -35.6871    1.0000 </r>
       <r>  -35.6835    1.0000 </r>
       <r>  -35.6832    1.0000 </r>
       <r>  -35.6598    1.0000 </r>
       <r>  -35.6598    1.0000 </r>
       <r>  -35.6085    1.0000 </r>
       <r>  -35.6080    1.0000 </r>
       <r>  -35.6047    1.0000 </r>
       <r>  -35.6045    1.0000 </r>
       <r>  -35.5988    1.0000 </r>
       <r>  -35.5983    1.0000 </r>
       <r>  -35.5411    1.0000 </r>
       <r>  -35.5395    1.0000 </r>
       <r>  -14.7949    1.0000 </r>
       <r>  -13.6188    1.0000 </r>
       <r>  -13.6162    1.0000 </r>
       <r>  -13.5007    1.0000 </r>
       <r>  -13.4960    1.0000 </r>
       <r>  -13.4927    1.0000 </r>
       <r>  -13.3864    1.0000 </r>
       <r>  -13.3836    1.0000 </r>
       <r>  -13.0220    1.0000 </r>
       <r>  -13.0207    1.0000 </r>
       <r>  -12.9732    1.0000 </r>
       <r>  -12.9723    1.0000 </r>
       <r>  -12.9306    1.0000 </r>
       <r>  -12.9290    1.0000 </r>
       <r>  -12.6829    1.0000 </r>
       <r>  -12.6797    1.0000 </r>
       <r>  -12.6071    1.0000 </r>
       <r>  -12.6050    1.0000 </r>
       <r>   -6.3261    1.0000 </r>
       <r>   -6.1070    1.0000 </r>
       <r>   -6.1054    1.0000 </r>
       <r>   -6.0519    1.0000 </r>
       <r>   -6.0497    1.0000 </r>
       <r>   -5.9475    1.0000 </r>
       <r>   -5.9459    1.0000 </r>
       <r>   -5.8585    1.0000 </r>
       <r>   -5.8557    1.0000 </r>
       <r>   -5.3712    1.0000 </r>
       <r>   -5.3676    1.0000 </r>
       <r>   -5.0284    1.0000 </r>
       <r>   -5.0269    1.0000 </r>
       <r>   -4.8994    1.0000 </r>
       <r>   -4.8974    1.0000 </r>
       <r>   -4.7565    1.0000 </r>
       <r>   -4.7544    1.0000 </r>
       <r>   -4.7287    1.0000 </r>
       <r>   -4.7208    1.0000 </r>
       <r>   -4.6399    1.0000 </r>
       <r>   -4.6392    1.0000 </r>
       <r>   -4.6237    1.0000 </r>
       <r>   -4.6221    1.0000 </r>
       <r>   -4.6197    1.0000 </r>
       <r>   -4.6186    1.0000 </r>
       <r>   -4.2700    1.0000 </r>
       <r>   -4.2604    1.0000 </r>
       <r>   -3.6502    1.0000 </r>
       <r>   -3.6488    1.0000 </r>
       <r>   -3.6150    1.0000 </r>
       <r>   -3.6124    1.0000 </r>
       <r>   -3.6018    1.0000 </r>
       <r>   -3.5961    1.0000 </r>
       <r>   -3.5005    1.0000 </r>
       <r>   -3.4993    1.0000 </r>
       <r>   -3.3559    1.0000 </r>
       <r>   -3.3262    1.0000 </r>
       <r>   -2.8696    1.0000 </r>
       <r>   -2.8667    1.0000 </r>
       <r>   -2.5834    1.0000 </r>
       <r>   -2.4116    1.0000 </r>
       <r>   -2.4100    1.0000 </r>
       <r>   -2.3355    1.0000 </r>
       <r>   -2.3324    1.0000 </r>
       <r>   -2.2830    1.0000 </r>
       <r>   -2.2813    1.0000 </r>
       <r>   -2.2496    1.0000 </r>
       <r>   -2.2044    1.0000 </r>
       <r>   -2.2020    1.0000 </r>
       <r>   -2.1646    1.0000 </r>
       <r>   -2.1470    1.0000 </r>
       <r>   -2.1432    1.0000 </r>
       <r>   -2.0265    1.0000 </r>
       <r>   -2.0253    1.0000 </r>
       <r>   -1.6760    1.0000 </r>
       <r>   -1.6744    1.0000 </r>
       <r>   -1.6726    1.0000 </r>
       <r>   -1.6714    1.0000 </r>
       <r>   -1.6708    1.0000 </r>
       <r>   -1.6703    1.0000 </r>
       <r>   -0.7698    1.0000 </r>
       <r>   -0.7676    1.0000 </r>
       <r>   -0.7402    1.0000 </r>
       <r>    0.9582    0.0000 </r>
       <r>    0.9597    0.0000 </r>
       <r>    1.4501    0.0000 </r>
       <r>    1.4519    0.0000 </r>
       <r>    1.4628    0.0000 </r>
       <r>    1.4639    0.0000 </r>
       <r>    1.4799    0.0000 </r>
       <r>    1.4813    0.0000 </r>
       <r>    1.5625    0.0000 </r>
       <r>    1.5653    0.0000 </r>
       <r>    1.6307    0.0000 </r>
       <r>    1.6315    0.0000 </r>
       <r>    1.6720    0.0000 </r>
       <r>    1.6740    0.0000 </r>
       <r>    2.0077    0.0000 </r>
       <r>    2.0407    0.0000 </r>
       <r>    2.2431    0.0000 </r>
       <r>    2.2588    0.0000 </r>
       <r>    2.3381    0.0000 </r>
       <r>    2.3406    0.0000 </r>
       <r>    2.5319    0.0000 </r>
       <r>    2.5344    0.0000 </r>
       <r>    2.6349    0.0000 </r>
      </set>
      <set comment="kpoint 2">
       <r>  -61.6038    1.0000 </r>
       <r>  -61.5786    1.0000 </r>
       <r>  -61.5781    1.0000 </r>
       <r>  -61.5763    1.0000 </r>
       <r>  -61.5758    1.0000 </r>
       <r>  -61.5743    1.0000 </r>
       <r>  -61.5738    1.0000 </r>
       <r>  -61.5623    1.0000 </r>
       <r>  -61.5622    1.0000 </r>
       <r>  -35.8370    1.0000 </r>
       <r>  -35.8367    1.0000 </r>
       <r>  -35.8217    1.0000 </r>
       <r>  -35.8207    1.0000 </r>
       <r>  -35.8173    1.0000 </r>
       <r>  -35.8169    1.0000 </r>
       <r>  -35.7961    1.0000 </r>
       <r>  -35.7957    1.0000 </r>
       <r>  -35.7688    1.0000 </r>
       <r>  -35.7684    1.0000 </r>
       <r>  -35.7426    1.0000 </r>
       <r>  -35.6920    1.0000 </r>
       <r>  -35.6916    1.0000 </r>
       <r>  -35.6874    1.0000 </r>
       <r>  -35.6871    1.0000 </r>
       <r>  -35.6835    1.0000 </r>
       <r>  -35.6832    1.0000 </r>
       <r>  -35.6598    1.0000 </r>
       <r>  -35.6598    1.0000 </r>
       <r>  -35.6085    1.0000 </r>
       <r>  -35.6080    1.0000 </r>
       <r>  -35.6047    1.0000 </r>
       <r>  -35.6046    1.0000 </r>
       <r>  -35.5987    1.0000 </r>
       <r>  -35.5984    1.0000 </r>
       <r>  -35.5411    1.0000 </r>
       <r>  -35.5395    1.0000 </r>
       <r>  -14.7949    1.0000 </r>
       <r>  -13.6188    1.0000 </r>
       <r>  -13.6161    1.0000 </r>
       <r>  -13.5006    1.0000 </r>
       <r>  -13.4959    1.0000 </r>
       <r>  -13.4932    1.0000 </r>
       <r>  -13.3864    1.0000 </r>
       <r>  -13.3835    1.0000 </r>
       <r>  -13.0219    1.0000 </r>
       <r>  -13.0209    1.0000 </r>
       <r>  -12.9731    1.0000 </r>
       <r>  -12.9720    1.0000 </r>
       <r>  -12.9306    1.0000 </r>
       <r>  -12.9293    1.0000 </r>
       <r>  -12.6829    1.0000 </r>
       <r>  -12.6797    1.0000 </r>
       <r>  -12.6071    1.0000 </r>
       <r>  -12.6050    1.0000 </r>
       <r>   -6.3261    1.0000 </r>
       <r>   -6.1070    1.0000 </r>
       <r>   -6.1054    1.0000 </r>
       <r>   -6.0521    1.0000 </r>
       <r>   -6.0495    1.0000 </r>
       <r>   -5.9477    1.0000 </r>
       <r>   -5.9458    1.0000 </r>
       <r>   -5.8586    1.0000 </r>
       <r>   -5.8556    1.0000 </r>
       <r>   -5.3709    1.0000 </r>
       <r>   -5.3678    1.0000 </r>
       <r>   -5.0282    1.0000 </r>
       <r>   -5.0270    1.0000 </r>
       <r>   -4.8988    1.0000 </r>
       <r>   -4.8980    1.0000 </r>
       <r>   -4.7561    1.0000 </r>
       <r>   -4.7549    1.0000 </r>
       <r>   -4.7286    1.0000 </r>
       <r>   -4.7209    1.0000 </r>
       <r>   -4.6402    1.0000 </r>
       <r>   -4.6385    1.0000 </r>
       <r>   -4.6240    1.0000 </r>
       <r>   -4.6222    1.0000 </r>
       <r>   -4.6198    1.0000 </r>
       <r>   -4.6185    1.0000 </r>
       <r>   -4.2699    1.0000 </r>
       <r>   -4.2605    1.0000 </r>
       <r>   -3.6504    1.0000 </r>
       <r>   -3.6483    1.0000 </r>
       <r>   -3.6150    1.0000 </r>
       <r>   -3.6122    1.0000 </r>
       <r>   -3.6016    1.0000 </r>
       <r>   -3.5976    1.0000 </r>
       <r>   -3.5006    1.0000 </r>
       <r>   -3.4985    1.0000 </r>
       <r>   -3.3557    1.0000 </r>
       <r>   -3.3264    1.0000 </r>
       <r>   -2.8695    1.0000 </r>
       <r>   -2.8668    1.0000 </r>
       <r>   -2.5837    1.0000 </r>
       <r>   -2.4118    1.0000 </r>
       <r>   -2.4100    1.0000 </r>
       <r>   -2.3351    1.0000 </r>
       <r>   -2.3324    1.0000 </r>
       <r>   -2.2832    1.0000 </r>
       <r>   -2.2813    1.0000 </r>
       <r>   -2.2486    1.0000 </r>
       <r>   -2.2043    1.0000 </r>
       <r>   -2.2021    1.0000 </r>
       <r>   -2.1653    1.0000 </r>
       <r>   -2.1470    1.0000 </r>
       <r>   -2.1432    1.0000 </r>
       <r>   -2.0265    1.0000 </r>
       <r>   -2.0251    1.0000 </r>
       <r>   -1.6763    1.0000 </r>
       <r>   -1.6749    1.0000 </r>
       <r>   -1.6727    1.0000 </r>
       <r>   -1.6714    1.0000 </r>
       <r>   -1.6706    1.0000 </r>
       <r>   -1.6698    1.0000 </r>
       <r>   -0.7698    1.0000 </r>
       <r>   -0.7676    1.0000 </r>
       <r>   -0.7402    1.0000 </r>
       <r>    0.9582    0.0000 </r>
       <r>    0.9597    0.0000 </r>
       <r>    1.4500    0.0000 </r>
       <r>    1.4519    0.0000 </r>
       <r>    1.4630    0.0000 </r>
       <r>    1.4638    0.0000 </r>
       <r>    1.4795    0.0000 </r>
       <r>    1.4813    0.0000 </r>
       <r>    1.5630    0.0000 </r>
       <r>    1.5654    0.0000 </r>
       <r>    1.6304    0.0000 </r>
       <r>    1.6316    0.0000 </r>
       <r>    1.6721    0.0000 </r>
       <r>    1.6738    0.0000 </r>
       <r>    2.0089    0.0000 </r>
       <r>    2.0395    0.0000 </r>
       <r>    2.2425    0.0000 </r>
       <r>    2.2594    0.0000 </r>
       <r>    2.3380    0.0000 </r>
       <r>    2.3406    0.0000 </r>
       <r>    2.5338    0.0000 </r>
       <r>    2.5359    0.0000 </r>
       <r>    2.6356    0.0000 </r>
      </set>
      <set comment="kpoint 3">
       <r>  -61.6038    1.0000 </r>
       <r>  -61.5786    1.0000 </r>
       <r>  -61.5782    1.0000 </r>
       <r>  -61.5763    1.0000 </r>
       <r>  -61.5759    1.0000 </r>
       <r>  -61.5743    1.0000 </r>
       <r>  -61.5739    1.0000 </r>
       <r>  -61.5623    1.0000 </r>
       <r>  -61.5622    1.0000 </r>
       <r>  -35.8370    1.0000 </r>
       <r>  -35.8368    1.0000 </r>
       <r>  -35.8216    1.0000 </r>
       <r>  -35.8207    1.0000 </r>
       <r>  -35.8173    1.0000 </r>
       <r>  -35.8168    1.0000 </r>
       <r>  -35.7961    1.0000 </r>
       <r>  -35.7958    1.0000 </r>
       <r>  -35.7688    1.0000 </r>
       <r>  -35.7684    1.0000 </r>
       <r>  -35.7426    1.0000 </r>
       <r>  -35.6920    1.0000 </r>
       <r>  -35.6916    1.0000 </r>
       <r>  -35.6875    1.0000 </r>
       <r>  -35.6870    1.0000 </r>
       <r>  -35.6836    1.0000 </r>
       <r>  -35.6831    1.0000 </r>
       <r>  -35.6598    1.0000 </r>
       <r>  -35.6598    1.0000 </r>
       <r>  -35.6084    1.0000 </r>
       <r>  -35.6080    1.0000 </r>
       <r>  -35.6047    1.0000 </r>
       <r>  -35.6046    1.0000 </r>
       <r>  -35.5987    1.0000 </r>
       <r>  -35.5984    1.0000 </r>
       <r>  -35.5411    1.0000 </r>
       <r>  -35.5394    1.0000 </r>
       <r>  -14.7949    1.0000 </r>
       <r>  -13.6189    1.0000 </r>
       <r>  -13.6159    1.0000 </r>
       <r>  -13.5007    1.0000 </r>
       <r>  -13.4960    1.0000 </r>
       <r>  -13.4933    1.0000 </r>
       <r>  -13.3865    1.0000 </r>
       <r>  -13.3833    1.0000 </r>
       <r>  -13.0220    1.0000 </r>
       <r>  -13.0209    1.0000 </r>
       <r>  -12.9732    1.0000 </r>
       <r>  -12.9715    1.0000 </r>
       <r>  -12.9306    1.0000 </r>
       <r>  -12.9294    1.0000 </r>
       <r>  -12.6829    1.0000 </r>
       <r>  -12.6797    1.0000 </r>
       <r>  -12.6071    1.0000 </r>
       <r>  -12.6050    1.0000 </r>
       <r>   -6.3261    1.0000 </r>
       <r>   -6.1070    1.0000 </r>
       <r>   -6.1054    1.0000 </r>
       <r>   -6.0523    1.0000 </r>
       <r>   -6.0492    1.0000 </r>
       <r>   -5.9479    1.0000 </r>
       <r>   -5.9456    1.0000 </r>
       <r>   -5.8588    1.0000 </r>
       <r>   -5.8554    1.0000 </r>
       <r>   -5.3711    1.0000 </r>
       <r>   -5.3676    1.0000 </r>
       <r>   -5.0283    1.0000 </r>
       <r>   -5.0267    1.0000 </r>
       <r>   -4.8990    1.0000 </r>
       <r>   -4.8978    1.0000 </r>
       <r>   -4.7562    1.0000 </r>
       <r>   -4.7550    1.0000 </r>
       <r>   -4.7287    1.0000 </r>
       <r>   -4.7209    1.0000 </r>
       <r>   -4.6406    1.0000 </r>
       <r>   -4.6378    1.0000 </r>
       <r>   -4.6244    1.0000 </r>
       <r>   -4.6223    1.0000 </r>
       <r>   -4.6201    1.0000 </r>
       <r>   -4.6181    1.0000 </r>
       <r>   -4.2698    1.0000 </r>
       <r>   -4.2605    1.0000 </r>
       <r>   -3.6506    1.0000 </r>
       <r>   -3.6478    1.0000 </r>
       <r>   -3.6150    1.0000 </r>
       <r>   -3.6120    1.0000 </r>
       <r>   -3.6016    1.0000 </r>
       <r>   -3.5988    1.0000 </r>
       <r>   -3.5008    1.0000 </r>
       <r>   -3.4976    1.0000 </r>
       <r>   -3.3554    1.0000 </r>
       <r>   -3.3267    1.0000 </r>
       <r>   -2.8695    1.0000 </r>
       <r>   -2.8668    1.0000 </r>
       <r>   -2.5839    1.0000 </r>
       <r>   -2.4119    1.0000 </r>
       <r>   -2.4101    1.0000 </r>
       <r>   -2.3348    1.0000 </r>
       <r>   -2.3325    1.0000 </r>
       <r>   -2.2834    1.0000 </r>
       <r>   -2.2813    1.0000 </r>
       <r>   -2.2475    1.0000 </r>
       <r>   -2.2043    1.0000 </r>
       <r>   -2.2022    1.0000 </r>
       <r>   -2.1661    1.0000 </r>
       <r>   -2.1471    1.0000 </r>
       <r>   -2.1432    1.0000 </r>
       <r>   -2.0264    1.0000 </r>
       <r>   -2.0248    1.0000 </r>
       <r>   -1.6765    1.0000 </r>
       <r>   -1.6752    1.0000 </r>
       <r>   -1.6729    1.0000 </r>
       <r>   -1.6716    1.0000 </r>
       <r>   -1.6707    1.0000 </r>
       <r>   -1.6688    1.0000 </r>
       <r>   -0.7698    1.0000 </r>
       <r>   -0.7676    1.0000 </r>
       <r>   -0.7402    1.0000 </r>
       <r>    0.9583    0.0000 </r>
       <r>    0.9596    0.0000 </r>
       <r>    1.4497    0.0000 </r>
       <r>    1.4520    0.0000 </r>
       <r>    1.4632    0.0000 </r>
       <r>    1.4638    0.0000 </r>
       <r>    1.4791    0.0000 </r>
       <r>    1.4813    0.0000 </r>
       <r>    1.5635    0.0000 </r>
       <r>    1.5655    0.0000 </r>
       <r>    1.6298    0.0000 </r>
       <r>    1.6319    0.0000 </r>
       <r>    1.6723    0.0000 </r>
       <r>    1.6736    0.0000 </r>
       <r>    2.0103    0.0000 </r>
       <r>    2.0381    0.0000 </r>
       <r>    2.2420    0.0000 </r>
       <r>    2.2598    0.0000 </r>
       <r>    2.3380    0.0000 </r>
       <r>    2.3407    0.0000 </r>
       <r>    2.5338    0.0000 </r>
       <r>    2.5379    0.0000 </r>
       <r>    2.6372    0.0000 </r>
      </set>
      <set comment="kpoint 4">
       <r>  -61.6031    1.0000 </r>
       <r>  -61.5815    1.0000 </r>
       <r>  -61.5796    1.0000 </r>
       <r>  -61.5772    1.0000 </r>
       <r>  -61.5744    1.0000 </r>
       <r>  -61.5727    1.0000 </r>
       <r>  -61.5716    1.0000 </r>
       <r>  -61.5627    1.0000 </r>
       <r>  -61.5625    1.0000 </r>
       <r>  -35.8600    1.0000 </r>
       <r>  -35.8481    1.0000 </r>
       <r>  -35.8325    1.0000 </r>
       <r>  -35.8301    1.0000 </r>
       <r>  -35.8296    1.0000 </r>
       <r>  -35.8032    1.0000 </r>
       <r>  -35.7813    1.0000 </r>
       <r>  -35.7656    1.0000 </r>
       <r>  -35.7549    1.0000 </r>
       <r>  -35.7533    1.0000 </r>
       <r>  -35.7412    1.0000 </r>
       <r>  -35.6980    1.0000 </r>
       <r>  -35.6944    1.0000 </r>
       <r>  -35.6895    1.0000 </r>
       <r>  -35.6839    1.0000 </r>
       <r>  -35.6805    1.0000 </r>
       <r>  -35.6786    1.0000 </r>
       <r>  -35.6606    1.0000 </r>
       <r>  -35.6604    1.0000 </r>
       <r>  -35.6143    1.0000 </r>
       <r>  -35.6136    1.0000 </r>
       <r>  -35.6122    1.0000 </r>
       <r>  -35.6054    1.0000 </r>
       <r>  -35.5977    1.0000 </r>
       <r>  -35.5915    1.0000 </r>
       <r>  -35.5482    1.0000 </r>
       <r>  -35.5411    1.0000 </r>
       <r>  -14.7663    1.0000 </r>
       <r>  -13.7792    1.0000 </r>
       <r>  -13.6859    1.0000 </r>
       <r>  -13.5558    1.0000 </r>
       <r>  -13.4888    1.0000 </r>
       <r>  -13.4022    1.0000 </r>
       <r>  -13.3032    1.0000 </r>
       <r>  -13.2456    1.0000 </r>
       <r>  -13.0858    1.0000 </r>
       <r>  -13.0481    1.0000 </r>
       <r>  -12.9959    1.0000 </r>
       <r>  -12.9351    1.0000 </r>
       <r>  -12.8970    1.0000 </r>
       <r>  -12.8756    1.0000 </r>
       <r>  -12.7060    1.0000 </r>
       <r>  -12.7003    1.0000 </r>
       <r>  -12.6187    1.0000 </r>
       <r>  -12.6163    1.0000 </r>
       <r>   -6.2930    1.0000 </r>
       <r>   -6.1813    1.0000 </r>
       <r>   -6.1029    1.0000 </r>
       <r>   -6.0671    1.0000 </r>
       <r>   -6.0627    1.0000 </r>
       <r>   -5.9947    1.0000 </r>
       <r>   -5.8689    1.0000 </r>
       <r>   -5.7936    1.0000 </r>
       <r>   -5.7580    1.0000 </r>
       <r>   -5.5165    1.0000 </r>
       <r>   -5.5041    1.0000 </r>
       <r>   -5.1829    1.0000 </r>
       <r>   -5.1180    1.0000 </r>
       <r>   -4.9988    1.0000 </r>
       <r>   -4.8100    1.0000 </r>
       <r>   -4.6687    1.0000 </r>
       <r>   -4.6572    1.0000 </r>
       <r>   -4.6418    1.0000 </r>
       <r>   -4.6345    1.0000 </r>
       <r>   -4.6149    1.0000 </r>
       <r>   -4.6075    1.0000 </r>
       <r>   -4.6053    1.0000 </r>
       <r>   -4.6039    1.0000 </r>
       <r>   -4.5918    1.0000 </r>
       <r>   -4.5548    1.0000 </r>
       <r>   -4.2056    1.0000 </r>
       <r>   -4.1531    1.0000 </r>
       <r>   -3.7311    1.0000 </r>
       <r>   -3.7294    1.0000 </r>
       <r>   -3.7110    1.0000 </r>
       <r>   -3.6699    1.0000 </r>
       <r>   -3.6625    1.0000 </r>
       <r>   -3.6337    1.0000 </r>
       <r>   -3.5123    1.0000 </r>
       <r>   -3.4218    1.0000 </r>
       <r>   -3.3835    1.0000 </r>
       <r>   -3.2962    1.0000 </r>
       <r>   -2.8136    1.0000 </r>
       <r>   -2.8012    1.0000 </r>
       <r>   -2.7500    1.0000 </r>
       <r>   -2.4787    1.0000 </r>
       <r>   -2.4158    1.0000 </r>
       <r>   -2.3382    1.0000 </r>
       <r>   -2.3255    1.0000 </r>
       <r>   -2.3204    1.0000 </r>
       <r>   -2.2997    1.0000 </r>
       <r>   -2.2973    1.0000 </r>
       <r>   -2.2278    1.0000 </r>
       <r>   -2.2253    1.0000 </r>
       <r>   -2.1831    1.0000 </r>
       <r>   -2.1814    1.0000 </r>
       <r>   -2.0940    1.0000 </r>
       <r>   -2.0388    1.0000 </r>
       <r>   -1.9281    1.0000 </r>
       <r>   -1.6274    1.0000 </r>
       <r>   -1.6249    1.0000 </r>
       <r>   -1.6166    1.0000 </r>
       <r>   -1.6009    1.0000 </r>
       <r>   -1.5999    1.0000 </r>
       <r>   -1.5876    1.0000 </r>
       <r>   -0.8348    1.0000 </r>
       <r>   -0.8231    1.0000 </r>
       <r>   -0.7533    1.0000 </r>
       <r>    1.0313    0.0000 </r>
       <r>    1.0384    0.0000 </r>
       <r>    1.3907    0.0000 </r>
       <r>    1.4094    0.0000 </r>
       <r>    1.4179    0.0000 </r>
       <r>    1.4492    0.0000 </r>
       <r>    1.4648    0.0000 </r>
       <r>    1.4677    0.0000 </r>
       <r>    1.5567    0.0000 </r>
       <r>    1.6121    0.0000 </r>
       <r>    1.6585    0.0000 </r>
       <r>    1.7037    0.0000 </r>
       <r>    1.7362    0.0000 </r>
       <r>    1.7613    0.0000 </r>
       <r>    1.9642    0.0000 </r>
       <r>    2.0930    0.0000 </r>
       <r>    2.1592    0.0000 </r>
       <r>    2.2255    0.0000 </r>
       <r>    2.3596    0.0000 </r>
       <r>    2.3658    0.0000 </r>
       <r>    2.3724    0.0000 </r>
       <r>    2.3988    0.0000 </r>
       <r>    2.4855    0.0000 </r>
      </set>
      <set comment="kpoint 5">
       <r>  -61.6031    1.0000 </r>
       <r>  -61.5815    1.0000 </r>
       <r>  -61.5796    1.0000 </r>
       <r>  -61.5772    1.0000 </r>
       <r>  -61.5744    1.0000 </r>
       <r>  -61.5727    1.0000 </r>
       <r>  -61.5716    1.0000 </r>
       <r>  -61.5627    1.0000 </r>
       <r>  -61.5625    1.0000 </r>
       <r>  -35.8601    1.0000 </r>
       <r>  -35.8481    1.0000 </r>
       <r>  -35.8325    1.0000 </r>
       <r>  -35.8301    1.0000 </r>
       <r>  -35.8295    1.0000 </r>
       <r>  -35.8031    1.0000 </r>
       <r>  -35.7813    1.0000 </r>
       <r>  -35.7657    1.0000 </r>
       <r>  -35.7549    1.0000 </r>
       <r>  -35.7533    1.0000 </r>
       <r>  -35.7412    1.0000 </r>
       <r>  -35.6980    1.0000 </r>
       <r>  -35.6944    1.0000 </r>
       <r>  -35.6895    1.0000 </r>
       <r>  -35.6840    1.0000 </r>
       <r>  -35.6805    1.0000 </r>
       <r>  -35.6786    1.0000 </r>
       <r>  -35.6606    1.0000 </r>
       <r>  -35.6604    1.0000 </r>
       <r>  -35.6143    1.0000 </r>
       <r>  -35.6136    1.0000 </r>
       <r>  -35.6122    1.0000 </r>
       <r>  -35.6055    1.0000 </r>
       <r>  -35.5977    1.0000 </r>
       <r>  -35.5914    1.0000 </r>
       <r>  -35.5483    1.0000 </r>
       <r>  -35.5411    1.0000 </r>
       <r>  -14.7663    1.0000 </r>
       <r>  -13.7790    1.0000 </r>
       <r>  -13.6860    1.0000 </r>
       <r>  -13.5560    1.0000 </r>
       <r>  -13.4888    1.0000 </r>
       <r>  -13.4023    1.0000 </r>
       <r>  -13.3033    1.0000 </r>
       <r>  -13.2452    1.0000 </r>
       <r>  -13.0861    1.0000 </r>
       <r>  -13.0479    1.0000 </r>
       <r>  -12.9957    1.0000 </r>
       <r>  -12.9350    1.0000 </r>
       <r>  -12.8968    1.0000 </r>
       <r>  -12.8761    1.0000 </r>
       <r>  -12.7060    1.0000 </r>
       <r>  -12.7004    1.0000 </r>
       <r>  -12.6188    1.0000 </r>
       <r>  -12.6162    1.0000 </r>
       <r>   -6.2930    1.0000 </r>
       <r>   -6.1815    1.0000 </r>
       <r>   -6.1028    1.0000 </r>
       <r>   -6.0672    1.0000 </r>
       <r>   -6.0626    1.0000 </r>
       <r>   -5.9946    1.0000 </r>
       <r>   -5.8690    1.0000 </r>
       <r>   -5.7937    1.0000 </r>
       <r>   -5.7578    1.0000 </r>
       <r>   -5.5164    1.0000 </r>
       <r>   -5.5041    1.0000 </r>
       <r>   -5.1826    1.0000 </r>
       <r>   -5.1179    1.0000 </r>
       <r>   -4.9986    1.0000 </r>
       <r>   -4.8102    1.0000 </r>
       <r>   -4.6682    1.0000 </r>
       <r>   -4.6571    1.0000 </r>
       <r>   -4.6419    1.0000 </r>
       <r>   -4.6348    1.0000 </r>
       <r>   -4.6150    1.0000 </r>
       <r>   -4.6079    1.0000 </r>
       <r>   -4.6055    1.0000 </r>
       <r>   -4.6036    1.0000 </r>
       <r>   -4.5921    1.0000 </r>
       <r>   -4.5552    1.0000 </r>
       <r>   -4.2053    1.0000 </r>
       <r>   -4.1530    1.0000 </r>
       <r>   -3.7312    1.0000 </r>
       <r>   -3.7291    1.0000 </r>
       <r>   -3.7117    1.0000 </r>
       <r>   -3.6700    1.0000 </r>
       <r>   -3.6625    1.0000 </r>
       <r>   -3.6339    1.0000 </r>
       <r>   -3.5127    1.0000 </r>
       <r>   -3.4214    1.0000 </r>
       <r>   -3.3823    1.0000 </r>
       <r>   -3.2967    1.0000 </r>
       <r>   -2.8134    1.0000 </r>
       <r>   -2.8011    1.0000 </r>
       <r>   -2.7507    1.0000 </r>
       <r>   -2.4794    1.0000 </r>
       <r>   -2.4154    1.0000 </r>
       <r>   -2.3383    1.0000 </r>
       <r>   -2.3250    1.0000 </r>
       <r>   -2.3206    1.0000 </r>
       <r>   -2.3001    1.0000 </r>
       <r>   -2.2952    1.0000 </r>
       <r>   -2.2271    1.0000 </r>
       <r>   -2.2255    1.0000 </r>
       <r>   -2.1834    1.0000 </r>
       <r>   -2.1814    1.0000 </r>
       <r>   -2.0933    1.0000 </r>
       <r>   -2.0400    1.0000 </r>
       <r>   -1.9280    1.0000 </r>
       <r>   -1.6264    1.0000 </r>
       <r>   -1.6238    1.0000 </r>
       <r>   -1.6177    1.0000 </r>
[...]
       <r>   -4.3994    1.0000 </r>
       <r>   -4.3986    1.0000 </r>
       <r>   -4.1811    1.0000 </r>
       <r>   -3.9945    1.0000 </r>
       <r>   -3.9355    1.0000 </r>
       <r>   -3.9334    1.0000 </r>
       <r>   -3.9129    1.0000 </r>
       <r>   -3.9109    1.0000 </r>
       <r>   -3.8973    1.0000 </r>
       <r>   -3.8947    1.0000 </r>
       <r>   -3.8850    1.0000 </r>
       <r>   -3.7464    1.0000 </r>
       <r>   -3.5277    1.0000 </r>
       <r>   -3.2300    1.0000 </r>
       <r>   -3.2284    1.0000 </r>
       <r>   -2.9918    1.0000 </r>
       <r>   -2.9461    1.0000 </r>
       <r>   -2.9445    1.0000 </r>
       <r>   -2.8676    1.0000 </r>
       <r>   -2.8527    1.0000 </r>
       <r>   -2.7094    1.0000 </r>
       <r>   -2.6893    1.0000 </r>
       <r>   -2.6861    1.0000 </r>
       <r>   -2.6041    1.0000 </r>
       <r>   -2.4780    1.0000 </r>
       <r>   -2.4767    1.0000 </r>
       <r>   -2.4160    1.0000 </r>
       <r>   -2.4148    1.0000 </r>
       <r>   -1.8375    1.0000 </r>
       <r>   -1.7993    1.0000 </r>
       <r>   -1.7866    1.0000 </r>
       <r>   -1.7863    1.0000 </r>
       <r>   -1.7126    1.0000 </r>
       <r>   -1.5198    1.0000 </r>
       <r>   -1.5191    1.0000 </r>
       <r>   -1.3650    1.0000 </r>
       <r>   -1.2692    1.0000 </r>
       <r>   -1.2686    1.0000 </r>
       <r>   -1.1849    1.0000 </r>
       <r>   -1.1845    1.0000 </r>
       <r>   -1.0852    1.0000 </r>
       <r>   -0.9654    1.0000 </r>
       <r>    1.2070    0.0000 </r>
       <r>    1.2076    0.0000 </r>
       <r>    1.4481    0.0000 </r>
       <r>    1.4498    0.0000 </r>
       <r>    1.4931    0.0000 </r>
       <r>    1.4955    0.0000 </r>
       <r>    1.5071    0.0000 </r>
       <r>    1.5184    0.0000 </r>
       <r>    1.6226    0.0000 </r>
       <r>    1.7375    0.0000 </r>
       <r>    1.7391    0.0000 </r>
       <r>    1.8235    0.0000 </r>
       <r>    1.8380    0.0000 </r>
       <r>    1.8714    0.0000 </r>
       <r>    1.9351    0.0000 </r>
       <r>    1.9497    0.0000 </r>
       <r>    1.9509    0.0000 </r>
       <r>    1.9895    0.0000 </r>
       <r>    1.9901    0.0000 </r>
       <r>    2.0143    0.0000 </r>
       <r>    2.1314    0.0000 </r>
       <r>    2.1320    0.0000 </r>
       <r>    2.5428    0.0000 </r>
      </set>
     </set>
    </set>
   </array>
  </eigenvalues>
  <separator name="orbital magnetization" >
   <v name="MAGDIPOLOUT">      0.00000000      0.00000000      0.00000000</v>
  </separator>
  <dos>
   <i name="efermi">     -0.24559980 </i>
   <total>
    <array>
     <dimension dim="1">gridpoints</dimension>
     <dimension dim="2">spin</dimension>
     <field>energy</field>
     <field>total</field>
     <field>integrated</field>
     <set>
      <set comment="spin 1">
       <r>   -64.8160     0.0000     0.0000 </r>
       <r>   -64.5805     0.0000     0.0000 </r>
       <r>   -64.3449     0.0000     0.0000 </r>
       <r>   -64.1094     0.0000     0.0000 </r>
       <r>   -63.8738     0.0000     0.0000 </r>
       <r>   -63.6383     0.0000     0.0000 </r>
       <r>   -63.4027     0.0000     0.0000 </r>
       <r>   -63.1672     0.0000     0.0000 </r>
       <r>   -62.9316     0.0000     0.0000 </r>
       <r>   -62.6961     0.0000     0.0000 </r>
       <r>   -62.4605     0.0000     0.0000 </r>
       <r>   -62.2250     0.0000     0.0000 </r>
       <r>   -61.9894     0.0000     0.0000 </r>
       <r>   -61.7539     0.5038     0.1187 </r>
       <r>   -61.5183    59.8771    14.2228 </r>
       <r>   -61.2828    16.0341    17.9996 </r>
       <r>   -61.0472     0.0015    18.0000 </r>
       <r>   -60.8117     0.0000    18.0000 </r>
       <r>   -60.5761     0.0000    18.0000 </r>
       <r>   -60.3406     0.0000    18.0000 </r>
       <r>   -60.1050     0.0000    18.0000 </r>
       <r>   -59.8695     0.0000    18.0000 </r>
       <r>   -59.6339     0.0000    18.0000 </r>
       <r>   -59.3984     0.0000    18.0000 </r>
       <r>   -59.1628     0.0000    18.0000 </r>
       <r>   -58.9273     0.0000    18.0000 </r>
       <r>   -58.6917     0.0000    18.0000 </r>
       <r>   -58.4562     0.0000    18.0000 </r>
       <r>   -58.2206     0.0000    18.0000 </r>
       <r>   -57.9851     0.0000    18.0000 </r>
       <r>   -57.7495     0.0000    18.0000 </r>
       <r>   -57.5140     0.0000    18.0000 </r>
       <r>   -57.2784     0.0000    18.0000 </r>
       <r>   -57.0429     0.0000    18.0000 </r>
       <r>   -56.8073     0.0000    18.0000 </r>
       <r>   -56.5718     0.0000    18.0000 </r>
       <r>   -56.3362     0.0000    18.0000 </r>
       <r>   -56.1007     0.0000    18.0000 </r>
       <r>   -55.8651     0.0000    18.0000 </r>
       <r>   -55.6295     0.0000    18.0000 </r>
       <r>   -55.3940     0.0000    18.0000 </r>
       <r>   -55.1584     0.0000    18.0000 </r>
       <r>   -54.9229     0.0000    18.0000 </r>
       <r>   -54.6873     0.0000    18.0000 </r>
       <r>   -54.4518     0.0000    18.0000 </r>
       <r>   -54.2162     0.0000    18.0000 </r>
       <r>   -53.9807     0.0000    18.0000 </r>
       <r>   -53.7451     0.0000    18.0000 </r>
       <r>   -53.5096     0.0000    18.0000 </r>
       <r>   -53.2740     0.0000    18.0000 </r>
       <r>   -53.0385     0.0000    18.0000 </r>
       <r>   -52.8029     0.0000    18.0000 </r>
       <r>   -52.5674     0.0000    18.0000 </r>
       <r>   -52.3318     0.0000    18.0000 </r>
       <r>   -52.0963     0.0000    18.0000 </r>
       <r>   -51.8607     0.0000    18.0000 </r>
       <r>   -51.6252     0.0000    18.0000 </r>
       <r>   -51.3896     0.0000    18.0000 </r>
       <r>   -51.1541     0.0000    18.0000 </r>
       <r>   -50.9185     0.0000    18.0000 </r>
       <r>   -50.6830     0.0000    18.0000 </r>
       <r>   -50.4474     0.0000    18.0000 </r>
       <r>   -50.2119     0.0000    18.0000 </r>
       <r>   -49.9763     0.0000    18.0000 </r>
       <r>   -49.7408     0.0000    18.0000 </r>
       <r>   -49.5052     0.0000    18.0000 </r>
       <r>   -49.2697     0.0000    18.0000 </r>
       <r>   -49.0341     0.0000    18.0000 </r>
       <r>   -48.7986     0.0000    18.0000 </r>
       <r>   -48.5630     0.0000    18.0000 </r>
       <r>   -48.3275     0.0000    18.0000 </r>
       <r>   -48.0919     0.0000    18.0000 </r>
       <r>   -47.8564     0.0000    18.0000 </r>
       <r>   -47.6208     0.0000    18.0000 </r>
       <r>   -47.3853     0.0000    18.0000 </r>
       <r>   -47.1497     0.0000    18.0000 </r>
       <r>   -46.9142     0.0000    18.0000 </r>
       <r>   -46.6786     0.0000    18.0000 </r>
       <r>   -46.4431     0.0000    18.0000 </r>
       <r>   -46.2075     0.0000    18.0000 </r>
       <r>   -45.9720     0.0000    18.0000 </r>
       <r>   -45.7364     0.0000    18.0000 </r>
       <r>   -45.5009     0.0000    18.0000 </r>
       <r>   -45.2653     0.0000    18.0000 </r>
       <r>   -45.0298     0.0000    18.0000 </r>
       <r>   -44.7942     0.0000    18.0000 </r>
       <r>   -44.5586     0.0000    18.0000 </r>
       <r>   -44.3231     0.0000    18.0000 </r>
       <r>   -44.0875     0.0000    18.0000 </r>
       <r>   -43.8520     0.0000    18.0000 </r>
       <r>   -43.6164     0.0000    18.0000 </r>
       <r>   -43.3809     0.0000    18.0000 </r>
       <r>   -43.1453     0.0000    18.0000 </r>
       <r>   -42.9098     0.0000    18.0000 </r>
       <r>   -42.6742     0.0000    18.0000 </r>
       <r>   -42.4387     0.0000    18.0000 </r>
       <r>   -42.2031     0.0000    18.0000 </r>
       <r>   -41.9676     0.0000    18.0000 </r>
       <r>   -41.7320     0.0000    18.0000 </r>
       <r>   -41.4965     0.0000    18.0000 </r>
       <r>   -41.2609     0.0000    18.0000 </r>
       <r>   -41.0254     0.0000    18.0000 </r>
       <r>   -40.7898     0.0000    18.0000 </r>
       <r>   -40.5543     0.0000    18.0000 </r>
       <r>   -40.3187     0.0000    18.0000 </r>
       <r>   -40.0832     0.0000    18.0000 </r>
       <r>   -39.8476     0.0000    18.0000 </r>
       <r>   -39.6121     0.0000    18.0000 </r>
       <r>   -39.3765     0.0000    18.0000 </r>
       <r>   -39.1410     0.0000    18.0000 </r>
       <r>   -38.9054     0.0000    18.0000 </r>
       <r>   -38.6699     0.0000    18.0000 </r>
       <r>   -38.4343     0.0000    18.0000 </r>
       <r>   -38.1988     0.0000    18.0000 </r>
       <r>   -37.9632     0.0000    18.0000 </r>
       <r>   -37.7277     0.0000    18.0000 </r>
       <r>   -37.4921     0.0000    18.0000 </r>
       <r>   -37.2566     0.0000    18.0000 </r>
       <r>   -37.0210     0.0000    18.0000 </r>
       <r>   -36.7855     0.0000    18.0000 </r>
       <r>   -36.5499     0.0000    18.0000 </r>
       <r>   -36.3144     0.0000    18.0000 </r>
       <r>   -36.0788     0.0728    18.0171 </r>
       <r>   -35.8433    30.1560    25.1204 </r>
       <r>   -35.6077   150.1955    60.4991 </r>
       <r>   -35.3722    48.7276    71.9770 </r>
       <r>   -35.1366     0.0977    72.0000 </r>
       <r>   -34.9011     0.0000    72.0000 </r>
       <r>   -34.6655     0.0000    72.0000 </r>
       <r>   -34.4300     0.0000    72.0000 </r>
       <r>   -34.1944     0.0000    72.0000 </r>
       <r>   -33.9588     0.0000    72.0000 </r>
       <r>   -33.7233     0.0000    72.0000 </r>
       <r>   -33.4877     0.0000    72.0000 </r>
       <r>   -33.2522     0.0000    72.0000 </r>
       <r>   -33.0166     0.0000    72.0000 </r>
       <r>   -32.7811     0.0000    72.0000 </r>
       <r>   -32.5455     0.0000    72.0000 </r>
       <r>   -32.3100     0.0000    72.0000 </r>
       <r>   -32.0744     0.0000    72.0000 </r>
       <r>   -31.8389     0.0000    72.0000 </r>
       <r>   -31.6033     0.0000    72.0000 </r>
       <r>   -31.3678     0.0000    72.0000 </r>
       <r>   -31.1322     0.0000    72.0000 </r>
       <r>   -30.8967     0.0000    72.0000 </r>
       <r>   -30.6611     0.0000    72.0000 </r>
       <r>   -30.4256     0.0000    72.0000 </r>
       <r>   -30.1900     0.0000    72.0000 </r>
       <r>   -29.9545     0.0000    72.0000 </r>
       <r>   -29.7189     0.0000    72.0000 </r>
       <r>   -29.4834     0.0000    72.0000 </r>
       <r>   -29.2478     0.0000    72.0000 </r>
       <r>   -29.0123     0.0000    72.0000 </r>
       <r>   -28.7767     0.0000    72.0000 </r>
       <r>   -28.5412     0.0000    72.0000 </r>
       <r>   -28.3056     0.0000    72.0000 </r>
       <r>   -28.0701     0.0000    72.0000 </r>
       <r>   -27.8345     0.0000    72.0000 </r>
       <r>   -27.5990     0.0000    72.0000 </r>
       <r>   -27.3634     0.0000    72.0000 </r>
       <r>   -27.1279     0.0000    72.0000 </r>
       <r>   -26.8923     0.0000    72.0000 </r>
       <r>   -26.6568     0.0000    72.0000 </r>
       <r>   -26.4212     0.0000    72.0000 </r>
       <r>   -26.1857     0.0000    72.0000 </r>
       <r>   -25.9501     0.0000    72.0000 </r>
       <r>   -25.7146     0.0000    72.0000 </r>
       <r>   -25.4790     0.0000    72.0000 </r>
       <r>   -25.2435     0.0000    72.0000 </r>
       <r>   -25.0079     0.0000    72.0000 </r>
       <r>   -24.7724     0.0000    72.0000 </r>
       <r>   -24.5368     0.0000    72.0000 </r>
       <r>   -24.3013     0.0000    72.0000 </r>
       <r>   -24.0657     0.0000    72.0000 </r>
       <r>   -23.8302     0.0000    72.0000 </r>
       <r>   -23.5946     0.0000    72.0000 </r>
       <r>   -23.3591     0.0000    72.0000 </r>
       <r>   -23.1235     0.0000    72.0000 </r>
       <r>   -22.8879     0.0000    72.0000 </r>
       <r>   -22.6524     0.0000    72.0000 </r>
       <r>   -22.4168     0.0000    72.0000 </r>
       <r>   -22.1813     0.0000    72.0000 </r>
       <r>   -21.9457     0.0000    72.0000 </r>
       <r>   -21.7102     0.0000    72.0000 </r>
       <r>   -21.4746     0.0000    72.0000 </r>
       <r>   -21.2391     0.0000    72.0000 </r>
       <r>   -21.0035     0.0000    72.0000 </r>
       <r>   -20.7680     0.0000    72.0000 </r>
       <r>   -20.5324     0.0000    72.0000 </r>
       <r>   -20.2969     0.0000    72.0000 </r>
       <r>   -20.0613     0.0000    72.0000 </r>
       <r>   -19.8258     0.0000    72.0000 </r>
       <r>   -19.5902     0.0000    72.0000 </r>
       <r>   -19.3547     0.0000    72.0000 </r>
       <r>   -19.1191     0.0000    72.0000 </r>
       <r>   -18.8836     0.0000    72.0000 </r>
       <r>   -18.6480     0.0000    72.0000 </r>
       <r>   -18.4125     0.0000    72.0000 </r>
       <r>   -18.1769     0.0000    72.0000 </r>
       <r>   -17.9414     0.0000    72.0000 </r>
       <r>   -17.7058     0.0000    72.0000 </r>
       <r>   -17.4703     0.0000    72.0000 </r>
       <r>   -17.2347     0.0000    72.0000 </r>
       <r>   -16.9992     0.0000    72.0000 </r>
       <r>   -16.7636     0.0000    72.0000 </r>
       <r>   -16.5281     0.0000    72.0000 </r>
       <r>   -16.2925     0.0000    72.0000 </r>
       <r>   -16.0570     0.0000    72.0000 </r>
       <r>   -15.8214     0.0000    72.0000 </r>
       <r>   -15.5859     0.0000    72.0000 </r>
       <r>   -15.3503     0.0000    72.0000 </r>
       <r>   -15.1148     0.0000    72.0000 </r>
       <r>   -14.8792     0.0964    72.0227 </r>
       <r>   -14.6437     2.9577    72.7194 </r>
       <r>   -14.4081     4.7201    73.8312 </r>
       <r>   -14.1726     5.0856    75.0291 </r>
       <r>   -13.9370     5.5510    76.3367 </r>
       <r>   -13.7015     6.1889    77.7945 </r>
       <r>   -13.4659     9.5446    80.0427 </r>
       <r>   -13.2304    20.1894    84.7984 </r>
       <r>   -12.9948    28.7542    91.5715 </r>
       <r>   -12.7593    44.1470   101.9703 </r>
       <r>   -12.5237    25.0976   107.8821 </r>
       <r>   -12.2881     0.5005   108.0000 </r>
       <r>   -12.0526     0.0000   108.0000 </r>
       <r>   -11.8170     0.0000   108.0000 </r>
       <r>   -11.5815     0.0000   108.0000 </r>
       <r>   -11.3459     0.0000   108.0000 </r>
       <r>   -11.1104     0.0000   108.0000 </r>
       <r>   -10.8748     0.0000   108.0000 </r>
       <r>   -10.6393     0.0000   108.0000 </r>
       <r>   -10.4037     0.0000   108.0000 </r>
       <r>   -10.1682     0.0000   108.0000 </r>
       <r>    -9.9326     0.0000   108.0000 </r>
       <r>    -9.6971     0.0000   108.0000 </r>
       <r>    -9.4615     0.0000   108.0000 </r>
       <r>    -9.2260     0.0000   108.0000 </r>
       <r>    -8.9904     0.0000   108.0000 </r>
       <r>    -8.7549     0.0000   108.0000 </r>
       <r>    -8.5193     0.0000   108.0000 </r>
       <r>    -8.2838     0.0000   108.0000 </r>
       <r>    -8.0482     0.0000   108.0000 </r>
       <r>    -7.8127     0.0000   108.0000 </r>
       <r>    -7.5771     0.0000   108.0000 </r>
       <r>    -7.3416     0.0000   108.0000 </r>
       <r>    -7.1060     0.0000   108.0000 </r>
       <r>    -6.8705     0.0000   108.0000 </r>
       <r>    -6.6349     0.0168   108.0040 </r>
       <r>    -6.3994     3.6626   108.8667 </r>
       <r>    -6.1638    13.4049   112.0242 </r>
       <r>    -5.9283    23.9482   117.6652 </r>
       <r>    -5.6927    36.7997   126.3334 </r>
       <r>    -5.4572    22.6921   131.6786 </r>
       <r>    -5.2216    11.2075   134.3185 </r>
       <r>    -4.9861     7.0090   135.9695 </r>
       <r>    -4.7505    11.5548   138.6912 </r>
       <r>    -4.5150    43.2432   148.8772 </r>
       <r>    -4.2794    26.0669   155.0173 </r>
       <r>    -4.0439    13.7799   158.2632 </r>
       <r>    -3.8083    41.9756   168.1506 </r>
       <r>    -3.5728    27.0445   174.5209 </r>
       <r>    -3.3372    14.9541   178.0434 </r>
       <r>    -3.1017    15.0217   181.5818 </r>
       <r>    -2.8661    16.4182   185.4491 </r>
       <r>    -2.6306    27.2780   191.8745 </r>
       <r>    -2.3950    36.7031   200.5199 </r>
       <r>    -2.1595    23.2401   205.9941 </r>
       <r>    -1.9239    18.8662   210.4381 </r>
       <r>    -1.6884    21.9081   215.5986 </r>
       <r>    -1.4528    25.0644   221.5025 </r>
       <r>    -1.2172    23.7180   227.0893 </r>
       <r>    -0.9817    16.9618   231.0847 </r>
       <r>    -0.7461    10.7475   233.6163 </r>
       <r>    -0.5106     1.6284   233.9999 </r>
       <r>    -0.2750     0.0006   234.0000 </r>
       <r>    -0.0395     0.0000   234.0000 </r>
       <r>     0.1961     0.0000   234.0000 </r>
       <r>     0.4316     0.0000   234.0000 </r>
       <r>     0.6672     0.0000   234.0000 </r>
       <r>     0.9027     0.2065   234.0487 </r>
       <r>     1.1383     3.5840   234.8929 </r>
       <r>     1.3738    23.4907   240.4261 </r>
       <r>     1.6094    45.2609   251.0874 </r>
       <r>     1.8449    42.3581   261.0649 </r>
       <r>     2.0805    38.6001   270.1572 </r>
       <r>     2.3160    24.7368   275.9840 </r>
       <r>     2.5516    15.6088   279.6606 </r>
       <r>     2.7871     1.4361   279.9989 </r>
       <r>     3.0227     0.0046   280.0000 </r>
       <r>     3.2582     0.0000   280.0000 </r>
       <r>     3.4938     0.0000   280.0000 </r>
       <r>     3.7293     0.0000   280.0000 </r>
       <r>     3.9649     0.0000   280.0000 </r>
       <r>     4.2004     0.0000   280.0000 </r>
       <r>     4.4360     0.0000   280.0000 </r>
       <r>     4.6715     0.0000   280.0000 </r>
       <r>     4.9071     0.0000   280.0000 </r>
       <r>     5.1426     0.0000   280.0000 </r>
       <r>     5.3782     0.0000   280.0000 </r>
       <r>     5.6137     0.0000   280.0000 </r>
       <r>     5.8493     0.0000   280.0000 </r>
      </set>
     </set>
    </array>
   </total>
  </dos>
 </calculation>
 <structure name="finalpos" >
  <crystal>
   <varray name="basis" >
    <v>       9.55158141       0.00000000       0.00000000 </v>
    <v>      -4.77579070       8.27191214       0.00000000 </v>
    <v>       0.00000000       0.00000000      15.00000000 </v>
   </varray>
   <i name="volume">   1185.14763341 </i>
   <varray name="rec_basis" >
    <v>       0.10469471       0.06044552       0.00000000 </v>
    <v>       0.00000000       0.12089103       0.00000000 </v>
    <v>       0.00000000       0.00000000       0.06666667 </v>
   </varray>
  </crystal>
  <varray name="positions" >
   <v>       0.22222223       0.11111111       0.25000000 </v>
   <v>       0.55555556       0.11111111       0.25000000 </v>
   <v>       0.88888890       0.11111111       0.25000000 </v>
   <v>       0.22222223       0.44444445       0.25000000 </v>
   <v>       0.55555556       0.44444445       0.25000000 </v>
   <v>       0.88888890       0.44444445       0.25000000 </v>
   <v>       0.22222223       0.77777778       0.25000000 </v>
   <v>       0.55555556       0.77777778       0.25000000 </v>
   <v>       0.88888890       0.77777778       0.25000000 </v>
   <v>       0.11167345       0.22222223       0.35471447 </v>
   <v>       0.44444445       0.22222223       0.35415213 </v>
   <v>       0.77777778       0.22222223       0.35415213 </v>
   <v>       0.11111111       0.55555556       0.35415213 </v>
   <v>       0.44444445       0.55555556       0.35415213 </v>
   <v>       0.77777778       0.55555556       0.35415213 </v>
   <v>       0.11111111       0.88888890       0.35415213 </v>
   <v>       0.44444445       0.88888890       0.35415213 </v>
   <v>       0.77777778       0.88888890       0.35415213 </v>
   <v>       0.11111111       0.22222223       0.14584787 </v>
   <v>       0.44444445       0.22222223       0.14584787 </v>
   <v>       0.77777778       0.22222223       0.14584787 </v>
   <v>       0.11111111       0.55555556       0.14584787 </v>
   <v>       0.44444445       0.55555556       0.14584787 </v>
   <v>       0.77777778       0.55555556       0.14584787 </v>
   <v>       0.11111111       0.88888890       0.14584787 </v>
   <v>       0.44444445       0.88888890       0.14584787 </v>
   <v>       0.77777778       0.88888890       0.14584787 </v>
  </varray>
 </structure>
</modeling>
