nqpoint: 102    
npath: 2      
segment_nqpoint:
- 51
- 51
labels:
- [ 'Gamma', 'M' ]
- [ 'M', 'K' ]
reciprocal_lattice:
- [   0.31408412,   0.18133655,   0.00000000 ] # a*
- [   0.00000000,   0.36267310,   0.00000000 ] # b*
- [   0.00000000,   0.00000000,   0.06666667 ] # c*
natom: 3      
lattice:
- [     3.183860468689844,     0.000000000000000,     0.000000000000000 ] # a
- [    -1.591930234344922,     2.757304048003876,     0.000000000000000 ] # b
- [     0.000000000000000,     0.000000000000000,    15.000000000000000 ] # c
points:
- symbol: Mo # 1
  coordinates: [  0.666666687000003,  0.333333343000000,  0.250000000000000 ]
  mass: 95.960000
- symbol: S  # 2
  coordinates: [  0.333333343000000,  0.666666687000003,  0.354152130189635 ]
  mass: 32.065000
- symbol: S  # 3
  coordinates: [  0.333333343000000,  0.666666687000003,  0.145847869810364 ]
  mass: 32.065000

phonon:
- q-position: [    0.0000000,    0.0000000,    0.0000000 ]
  distance:    0.0000000
  band:
  - # 1
    frequency:   -0.0023237160
    eigenvector:
    - # atom 1
      - [  0.68268948498411,  0.00000000000000 ]
      - [  0.36536001403810,  0.00000000000000 ]
      - [ -0.00000000112598,  0.00000000000000 ]
    - # atom 2
      - [  0.39451821819836,  0.00000000000000 ]
      - [  0.21113725186875,  0.00000000000000 ]
      - [ -0.00000000065099,  0.00000000000000 ]
    - # atom 3
      - [  0.39451821819836,  0.00000000000000 ]
      - [  0.21113725186875,  0.00000000000000 ]
      - [ -0.00000000065099,  0.00000000000000 ]
  - # 2
    frequency:   -0.0023237160
    eigenvector:
    - # atom 1
      - [ -0.36536001403810,  0.00000000000000 ]
      - [  0.68268948498411,  0.00000000000000 ]
      - [ -0.00000000186510,  0.00000000000000 ]
    - # atom 2
      - [ -0.21113725186875,  0.00000000000000 ]
      - [  0.39451821819836,  0.00000000000000 ]
      - [ -0.00000000107831,  0.00000000000000 ]
    - # atom 3
      - [ -0.21113725186875,  0.00000000000000 ]
      - [  0.39451821819836,  0.00000000000000 ]
      - [ -0.00000000107830,  0.00000000000000 ]
  - # 3
    frequency:    0.0008051444
    eigenvector:
    - # atom 1
      - [ -0.00000000011272,  0.00000000000000 ]
      - [ -0.00000000217611,  0.00000000000000 ]
      - [ -0.77416789797633,  0.00000000000000 ]
    - # atom 2
      - [ -0.00000000006514,  0.00000000000000 ]
      - [ -0.00000000125755,  0.00000000000000 ]
      - [ -0.44758466559016,  0.00000000000000 ]
    - # atom 3
      - [ -0.00000000006514,  0.00000000000000 ]
      - [ -0.00000000125755,  0.00000000000000 ]
      - [ -0.44758466559016,  0.00000000000000 ]
  - # 4
    frequency:    8.2884558991
    eigenvector:
    - # atom 1
      - [ -0.00000000000000,  0.00000000000000 ]
      - [  0.00000000000000,  0.00000000000000 ]
      - [  0.00000000000000,  0.00000000000000 ]
    - # atom 2
      - [ -0.06922237769266,  0.00000000000000 ]
      - [  0.70371035407089,  0.00000000000000 ]
      - [ -0.00000000000000,  0.00000000000000 ]
    - # atom 3
      - [  0.06922237769266,  0.00000000000000 ]
      - [ -0.70371035407089,  0.00000000000000 ]
      - [ -0.00000000000000,  0.00000000000000 ]
  - # 5
    frequency:    8.2884558991
    eigenvector:
    - # atom 1
      - [  0.00000000000000,  0.00000000000000 ]
      - [  0.00000000000000,  0.00000000000000 ]
      - [ -0.00000000000000,  0.00000000000000 ]
    - # atom 2
      - [ -0.70371035407089,  0.00000000000000 ]
      - [ -0.06922237769266,  0.00000000000000 ]
      - [ -0.00000000000000,  0.00000000000000 ]
    - # atom 3
      - [  0.70371035407089,  0.00000000000000 ]
      - [  0.06922237769266,  0.00000000000000 ]
      - [ -0.00000000000000,  0.00000000000000 ]
  - # 6
    frequency:   11.1909576051
    eigenvector:
    - # atom 1
      - [  0.17013909734409,  0.00000000000000 ]
      - [ -0.60950784637209,  0.00000000000000 ]
      - [  0.00000000000000,  0.00000000000000 ]
    - # atom 2
      - [ -0.14720761600304,  0.00000000000000 ]
      - [  0.52735789950811,  0.00000000000000 ]
      - [ -0.00000000000000,  0.00000000000000 ]
    - # atom 3
      - [ -0.14720761600304,  0.00000000000000 ]
      - [  0.52735789950811,  0.00000000000000 ]
      - [  0.00000000000000,  0.00000000000000 ]
  - # 7
    frequency:   11.1909576051
    eigenvector:
    - # atom 1
      - [  0.60950784637209,  0.00000000000000 ]
      - [  0.17013909734409,  0.00000000000000 ]
      - [ -0.00000000000000,  0.00000000000000 ]
    - # atom 2
      - [ -0.52735789950811,  0.00000000000000 ]
      - [ -0.14720761600304,  0.00000000000000 ]
      - [  0.00000000000000,  0.00000000000000 ]
    - # atom 3
      - [ -0.52735789950811,  0.00000000000000 ]
      - [ -0.14720761600304,  0.00000000000000 ]
      - [ -0.00000000000000,  0.00000000000000 ]
  - # 8
    frequency:   11.8825584660
    eigenvector:
    - # atom 1
      - [ -0.00000000000000,  0.00000000000000 ]
      - [ -0.00000000000000,  0.00000000000000 ]
      - [  0.00000000000000,  0.00000000000000 ]
    - # atom 2
      - [ -0.00000000000000,  0.00000000000000 ]
      - [  0.00000000000000,  0.00000000000000 ]
      - [  0.70710678118655,  0.00000000000000 ]
    - # atom 3
      - [  0.00000000000000,  0.00000000000000 ]
      - [  0.00000000000000,  0.00000000000000 ]
      - [ -0.70710678118655,  0.00000000000000 ]
  - # 9
    frequency:   13.7365210679
    eigenvector:
    - # atom 1
      - [ -0.00000000000000,  0.00000000000000 ]
      - [  0.00000000000000,  0.00000000000000 ]
      - [ -0.63298030438784,  0.00000000000000 ]
    - # atom 2
      - [ -0.00000000000000,  0.00000000000000 ]
      - [  0.00000000000000,  0.00000000000000 ]
      - [  0.54741937043600,  0.00000000000000 ]
    - # atom 3
      - [  0.00000000000000,  0.00000000000000 ]
      - [ -0.00000000000000,  0.00000000000000 ]
      - [  0.54741937043600,  0.00000000000000 ]

- q-position: [    0.0100000,    0.0000000,    0.0000000 ]
  distance:    0.0036267
  band:
  - # 1
    frequency:    0.2393441386
    eigenvector:
    - # atom 1
      - [  0.67062325110728,  0.00000000000000 ]
      - [  0.38718451455136,  0.00000000000174 ]
      - [  0.00000000000001,  0.00000000000000 ]
    - # atom 2
      - [  0.38743114969994, -0.00259136518907 ]
      - [  0.22368347857156, -0.00149612538847 ]
      - [ -0.00003524774375, -0.00549128693056 ]
    - # atom 3
      - [  0.38743114969994, -0.00259136518907 ]
      - [  0.22368347857156, -0.00149612538847 ]
      - [  0.00003524774377,  0.00549128693056 ]
  - # 2
    frequency:    0.1410127494
    eigenvector:
    - # atom 1
      - [ -0.38713716536179,  0.00000000000000 ]
      - [  0.67054123990524,  0.00000000000301 ]
      - [ -0.00000000000001,  0.00000000000004 ]
    - # atom 2
      - [ -0.22374128896276, -0.00149773528246 ]
      - [  0.38753128023472,  0.00259415360725 ]
      - [  0.00000000000001,  0.00000000000002 ]
    - # atom 3
      - [ -0.22374128896276, -0.00149773528246 ]
      - [  0.38753128023471,  0.00259415360725 ]
      - [ -0.00000000000001,  0.00000000000002 ]
  - # 3
    frequency:    0.0789465649
    eigenvector:
    - # atom 1
      - [  0.00000000000002,  0.00000000000000 ]
      - [ -0.00000000000003, -0.00000000000002 ]
      - [ -0.48622585567727,  0.60227565898711 ]
    - # atom 2
      - [  0.00992189890479,  0.00788886009992 ]
      - [  0.00572841100353,  0.00455463550228 ]
      - [ -0.28106976161503,  0.34815194304816 ]
    - # atom 3
      - [ -0.00992189890476, -0.00788886009992 ]
      - [ -0.00572841100356, -0.00455463550230 ]
      - [ -0.28106976161503,  0.34815194304816 ]
  - # 4
    frequency:    8.2889820959
    eigenvector:
    - # atom 1
      - [  0.00000000000000,  0.00000000000000 ]
      - [ -0.00000000000000,  0.00000000000000 ]
      - [  0.00000000000000, -0.00000000000001 ]
    - # atom 2
      - [ -0.35355267148725,  0.00071308056564 ]
      - [  0.61237119016872, -0.00123509176959 ]
      - [ -0.00000000000000, -0.00000000000001 ]
    - # atom 3
      - [  0.35355267148725, -0.00071308056564 ]
      - [ -0.61237119016872,  0.00123509176959 ]
      - [ -0.00000000000000, -0.00000000000001 ]
  - # 5
    frequency:    8.2912735159
    eigenvector:
    - # atom 1
      - [  0.00000000000000,  0.00000000000000 ]
      - [  0.00000000000000, -0.00000000000000 ]
      - [ -0.00006238561238,  0.01296306713042 ]
    - # atom 2
      - [ -0.61223190278368,  0.00162563529066 ]
      - [ -0.35347225387801,  0.00093856097267 ]
      - [ -0.00005676181977,  0.01191275127226 ]
    - # atom 3
      - [  0.61223190278368, -0.00162563529066 ]
      - [  0.35347225387800, -0.00093856097267 ]
      - [ -0.00005676181977,  0.01191275127226 ]
  - # 6
    frequency:   11.1905625045
    eigenvector:
    - # atom 1
      - [ -0.31642505462694,  0.00000000000000 ]
      - [  0.54806427140101, -0.00000000000088 ]
      - [ -0.00000000000000, -0.00000000000000 ]
    - # atom 2
      - [  0.27374118173351,  0.00183243704389 ]
      - [ -0.47413363488586, -0.00317387406094 ]
      - [ -0.00000000000002,  0.00000000000002 ]
    - # atom 3
      - [  0.27374118173351,  0.00183243704389 ]
      - [ -0.47413363488586, -0.00317387406094 ]
      - [  0.00000000000002, -0.00000000000002 ]
  - # 7
    frequency:   11.1889693757
    eigenvector:
    - # atom 1
      - [  0.54713165513475,  0.00000000000000 ]
      - [  0.31588660837456, -0.00000000000051 ]
      - [ -0.00000000000000, -0.00000000000000 ]
    - # atom 2
      - [ -0.47384981368474,  0.00317238497352 ]
      - [ -0.27357731748664,  0.00183157731887 ]
      - [ -0.00048929604021, -0.03224048099526 ]
    - # atom 3
      - [ -0.47384981368474,  0.00317238497352 ]
      - [ -0.27357731748664,  0.00183157731887 ]
      - [  0.00048929604021,  0.03224048099526 ]
  - # 8
    frequency:   11.8833646168
    eigenvector:
    - # atom 1
      - [  0.03018951844258,  0.00000000000000 ]
      - [  0.01742992659953, -0.00000000000000 ]
      - [  0.00000000000000,  0.00000000000000 ]
    - # atom 2
      - [ -0.01861918884920,  0.00007014045666 ]
      - [ -0.01074979369418,  0.00004049561154 ]
      - [  0.00965061133388,  0.70628395295441 ]
    - # atom 3
      - [ -0.01861918884920,  0.00007014045666 ]
      - [ -0.01074979369418,  0.00004049561154 ]
      - [ -0.00965061133388, -0.70628395295441 ]
  - # 9
    frequency:   13.7339134057
    eigenvector:
    - # atom 1
      - [ -0.00000000000000,  0.00000000000000 ]
      - [ -0.00000000000000,  0.00000000000000 ]
      - [ -0.63016489404415,  0.05977130729271 ]
    - # atom 2
      - [ -0.00030135119024, -0.00294712063101 ]
      - [ -0.00017398519081, -0.00170152088965 ]
      - [  0.54495549262507, -0.05168759861371 ]
    - # atom 3
      - [  0.00030135119024,  0.00294712063101 ]
      - [  0.00017398519081,  0.00170152088965 ]
      - [  0.54495549262507, -0.05168759861371 ]

- q-position: [    0.0200000,    0.0000000,    0.0000000 ]
  distance:    0.0072535
  band:
  - # 1
    frequency:    0.4784104853
    eigenvector:
    - # atom 1
      - [  0.67078205506630,  0.00000000000000 ]
      - [  0.38727620006005,  0.00000000000087 ]
      - [  0.00000000000000, -0.00000000000000 ]
    - # atom 2
      - [  0.38717976308253, -0.00518356720913 ]
      - [  0.22353834044044, -0.00299273392305 ]
      - [ -0.00014127469407, -0.01099478797641 ]
    - # atom 3
      - [  0.38717976308253, -0.00518356720913 ]
      - [  0.22353834044044, -0.00299273392305 ]
      - [  0.00014127469408,  0.01099478797641 ]
  - # 2
    frequency:    0.2819411080
    eigenvector:
    - # atom 1
      - [ -0.38708677240948,  0.00000000000000 ]
      - [  0.67045395675115,  0.00000000000151 ]
      - [ -0.00000000000001, -0.00000000000000 ]
    - # atom 2
      - [ -0.22376970662228, -0.00300561324174 ]
      - [  0.38758050106462,  0.00520587484347 ]
      - [  0.00000000000000, -0.00000000000000 ]
    - # atom 3
      - [ -0.22376970662228, -0.00300561324174 ]
      - [  0.38758050106462,  0.00520587484347 ]
      - [ -0.00000000000002,  0.00000000000000 ]
  - # 3
    frequency:    0.1584926778
    eigenvector:
    - # atom 1
      - [  0.00000000000001,  0.00000000000000 ]
      - [ -0.00000000000001,  0.00000000000000 ]
      - [ -0.77260525250731,  0.04103215686402 ]
    - # atom 2
      - [  0.00171765710670,  0.02523934566565 ]
      - [  0.00099168979292,  0.01457194301424 ]
      - [ -0.44641219048570,  0.02369808534333 ]
    - # atom 3
      - [ -0.00171765710669, -0.02523934566565 ]
      - [ -0.00099168979293, -0.01457194301423 ]
      - [ -0.44641219048570,  0.02369808534333 ]
  - # 4
    frequency:    8.2905604847
    eigenvector:
    - # atom 1
      - [ -0.00000000000000,  0.00000000000000 ]
      - [  0.00000000000000,  0.00000000000000 ]
      - [ -0.00000000000000,  0.00000000000001 ]
    - # atom 2
      - [  0.35349255280801,  0.00655859048261 ]
      - [ -0.61226706156121, -0.01135981194192 ]
      - [ -0.00000000000000,  0.00000000000001 ]
    - # atom 3
      - [ -0.35349255280801, -0.00655859048261 ]
      - [  0.61226706156121,  0.01135981194192 ]
      - [ -0.00000000000000,  0.00000000000001 ]
  - # 5
    frequency:    8.2996989126
    eigenvector:
    - # atom 1
      - [  0.00000000000000,  0.00000000000000 ]
      - [  0.00000000000000, -0.00000000000000 ]
      - [ -0.00013981394233,  0.02584555221755 ]
    - # atom 2
      - [ -0.61179305974822,  0.00583134421364 ]
      - [ -0.35321888773369,  0.00336672815148 ]
      - [ -0.00012698289438,  0.02379722200085 ]
    - # atom 3
      - [  0.61179305974822, -0.00583134421364 ]
      - [  0.35321888773369, -0.00336672815148 ]
      - [ -0.00012698289438,  0.02379722200085 ]
  - # 6
    frequency:   11.1893768345
    eigenvector:
    - # atom 1
      - [ -0.31648669897132,  0.00000000000000 ]
      - [  0.54817104253743, -0.00000000000044 ]
      - [  0.00000000000000,  0.00000000000000 ]
    - # atom 2
      - [  0.27368699468618,  0.00367608854539 ]
      - [ -0.47403978016672, -0.00636717213337 ]
      - [ -0.00000000000002,  0.00000000000003 ]
    - # atom 3
      - [  0.27368699468618,  0.00367608854539 ]
      - [ -0.47403978016672, -0.00636717213337 ]
      - [  0.00000000000002, -0.00000000000003 ]
  - # 7
    frequency:   11.1830461571
    eigenvector:
    - # atom 1
      - [  0.54448835867660,  0.00000000000000 ]
      - [  0.31436050045293, -0.00000000000025 ]
      - [  0.00000000000000, -0.00000000000000 ]
    - # atom 2
      - [ -0.47293337740052,  0.00635548490987 ]
      - [ -0.27304821275128,  0.00366934092376 ]
      - [ -0.00194004954817, -0.06384375866663 ]
    - # atom 3
      - [ -0.47293337740052,  0.00635548490987 ]
      - [ -0.27304821275128,  0.00366934092376 ]
      - [  0.00194004954817,  0.06384375866663 ]
  - # 8
    frequency:   11.8857452362
    eigenvector:
    - # atom 1
      - [  0.05986536449855,  0.00000000000000 ]
      - [  0.03456328430837, -0.00000000000000 ]
      - [  0.00000000000000,  0.00000000000000 ]
    - # atom 2
      - [ -0.03685801890118,  0.00027655921060 ]
      - [ -0.02127998713439,  0.00015967153469 ]
      - [  0.01922812854299,  0.70386759013228 ]
    - # atom 3
      - [ -0.03685801890118,  0.00027655921060 ]
      - [ -0.02127998713439,  0.00015967153469 ]
      - [ -0.01922812854299, -0.70386759013228 ]
  - # 9
    frequency:   13.7260984232
    eigenvector:
    - # atom 1
      - [  0.00000000000000,  0.00000000000000 ]
      - [  0.00000000000000,  0.00000000000000 ]
      - [  0.61707622745373, -0.14123173614779 ]
    - # atom 2
      - [  0.00140987853618,  0.00576929767561 ]
      - [  0.00081399375239,  0.00333090556605 ]
      - [ -0.53355332100567,  0.12210277098011 ]
    - # atom 3
      - [ -0.00140987853618, -0.00576929767561 ]
      - [ -0.00081399375239, -0.00333090556605 ]
      - [ -0.53355332100567,  0.12210277098010 ]

- q-position: [    0.0300000,    0.0000000,    0.0000000 ]
  distance:    0.0108802
  band:
  - # 1
    frequency:    0.7168838468
    eigenvector:
    - # atom 1
      - [  0.67104750975687,  0.00000000000000 ]
      - [  0.38742946039717,  0.00000000000058 ]
      - [  0.00000000000000, -0.00000000000000 ]
    - # atom 2
      - [  0.38675871608749, -0.00777740357943 ]
      - [  0.22329524884455, -0.00449028604985 ]
      - [ -0.00031893477862, -0.01652275436770 ]
    - # atom 3
      - [  0.38675871608749, -0.00777740357943 ]
      - [  0.22329524884455, -0.00449028604985 ]
      - [  0.00031893477862,  0.01652275436770 ]
  - # 2
    frequency:    0.4226369728
    eigenvector:
    - # atom 1
      - [ -0.38700313353213,  0.00000000000000 ]
      - [  0.67030908996598,  0.00000000000100 ]
      - [ -0.00000000000001, -0.00000000000001 ]
    - # atom 2
      - [ -0.22381629141827, -0.00453376377080 ]
      - [  0.38766118829809,  0.00785270920112 ]
      - [  0.00000000000001, -0.00000000000000 ]
    - # atom 3
      - [ -0.22381629141827, -0.00453376377080 ]
      - [  0.38766118829809,  0.00785270920112 ]
      - [ -0.00000000000002, -0.00000000000000 ]
  - # 3
    frequency:    0.2392301883
    eigenvector:
    - # atom 1
      - [  0.00000000000001,  0.00000000000000 ]
      - [ -0.00000000000001,  0.00000000000000 ]
      - [ -0.73636356876016, -0.23551998471957 ]
    - # atom 2
      - [ -0.01071127995058,  0.03626388949433 ]
      - [ -0.00618416036284,  0.02093696636142 ]
      - [ -0.42513917900015, -0.13601394259443 ]
    - # atom 3
      - [  0.01071127995059, -0.03626388949433 ]
      - [  0.00618416036283, -0.02093696636141 ]
      - [ -0.42513917900015, -0.13601394259444 ]
  - # 4
    frequency:    8.2931904289
    eigenvector:
    - # atom 1
      - [  0.00000000000000,  0.00000000000000 ]
      - [ -0.00000000000000,  0.00000000000000 ]
      - [  0.00000000000000, -0.00000000000000 ]
    - # atom 2
      - [ -0.35323862184610,  0.01491563060147 ]
      - [  0.61182724023315, -0.02583463002868 ]
      - [ -0.00000000000000, -0.00000000000000 ]
    - # atom 3
      - [  0.35323862184610, -0.01491563060147 ]
      - [ -0.61182724023315,  0.02583463002868 ]
      - [ -0.00000000000000, -0.00000000000000 ]
  - # 5
    frequency:    8.3136503977
    eigenvector:
    - # atom 1
      - [ -0.00000000000000,  0.00000000000000 ]
      - [  0.00000000000000,  0.00000000000000 ]
      - [ -0.00280559447834,  0.03846687486767 ]
    - # atom 2
      - [ -0.61036296865620, -0.03077743649791 ]
      - [ -0.35239322425698, -0.01776936124703 ]
      - [ -0.00258961567579,  0.03553264940683 ]
    - # atom 3
      - [  0.61036296865620,  0.03077743649791 ]
      - [  0.35239322425698,  0.01776936124703 ]
      - [ -0.00258961567579,  0.03553264940683 ]
  - # 6
    frequency:   11.1873995125
    eigenvector:
    - # atom 1
      - [ -0.31658896796381,  0.00000000000000 ]
      - [  0.54834817762887, -0.00000000000029 ]
      - [  0.00000000000000,  0.00000000000000 ]
    - # atom 2
      - [  0.27359641326596,  0.00554214127321 ]
      - [ -0.47388288854504, -0.00959927026768 ]
      - [ -0.00000000000002,  0.00000000000002 ]
    - # atom 3
      - [  0.27359641326596,  0.00554214127321 ]
      - [ -0.47388288854504, -0.00959927026768 ]
      - [  0.00000000000002, -0.00000000000002 ]
  - # 7
    frequency:   11.1733078583
    eigenvector:
    - # atom 1
      - [  0.54023258751511,  0.00000000000000 ]
      - [  0.31190342982700, -0.00000000000017 ]
      - [  0.00000000000000,  0.00000000000000 ]
    - # atom 2
      - [ -0.47149632209044,  0.00956101294356 ]
      - [ -0.27221852848096,  0.00552005339683 ]
      - [ -0.00430349679374, -0.09423581001202 ]
    - # atom 3
      - [ -0.47149632209044,  0.00956101294356 ]
      - [ -0.27221852848096,  0.00552005339683 ]
      - [  0.00430349679374,  0.09423581001202 ]
  - # 8
    frequency:   11.8895913670
    eigenvector:
    - # atom 1
      - [  0.08856630869443,  0.00000000000000 ]
      - [  0.05113378216586, -0.00000000000000 ]
      - [ -0.00000000000000, -0.00000000000000 ]
    - # atom 2
      - [ -0.05437502467281,  0.00060786707024 ]
      - [ -0.03139343513204,  0.00035095221664 ]
      - [  0.02866676543974,  0.70000443245358 ]
    - # atom 3
      - [ -0.05437502467281,  0.00060786707024 ]
      - [ -0.03139343513204,  0.00035095221664 ]
      - [ -0.02866676543974, -0.70000443245358 ]
  - # 9
    frequency:   13.7131001278
    eigenvector:
    - # atom 1
      - [  0.00000000000000,  0.00000000000000 ]
      - [  0.00000000000000,  0.00000000000000 ]
      - [  0.62765172165199,  0.08285394308862 ]
    - # atom 2
      - [ -0.00097454724776,  0.00889072292117 ]
      - [ -0.00056265511583,  0.00513306127183 ]
      - [ -0.54254234916728, -0.07166177485825 ]
    - # atom 3
      - [  0.00097454724776, -0.00889072292117 ]
      - [  0.00056265511583, -0.00513306127183 ]
      - [ -0.54254234916728, -0.07166177485826 ]

- q-position: [    0.0400000,    0.0000000,    0.0000000 ]
  distance:    0.0145069
  band:
  - # 1
    frequency:    0.9544729023
    eigenvector:
    - # atom 1
      - [  0.67142077505121,  0.00000000000000 ]
      - [  0.38764496521529,  0.00000000000043 ]
      - [ -0.00000000000000, -0.00000000000000 ]
    - # atom 2
      - [  0.38616489098745, -0.01037359235176 ]
      - [  0.22295240376316, -0.00598919633650 ]
      - [ -0.00056966043192, -0.02208751020986 ]
    - # atom 3
      - [  0.38616489098745, -0.01037359235176 ]
      - [  0.22295240376316, -0.00598919633650 ]
      - [  0.00056966043192,  0.02208751020986 ]
  - # 2
    frequency:    0.5629923110
    eigenvector:
    - # atom 1
      - [ -0.38688676997837,  0.00000000000000 ]
      - [  0.67010754237881,  0.00000000000075 ]
      - [ -0.00000000000001, -0.00000000000000 ]
    - # atom 2
      - [ -0.22387987314457, -0.00609229091580 ]
      - [  0.38777131507852,  0.01055215740109 ]
      - [  0.00000000000000, -0.00000000000000 ]
    - # atom 3
      - [ -0.22387987314457, -0.00609229091580 ]
      - [  0.38777131507852,  0.01055215740109 ]
      - [ -0.00000000000002, -0.00000000000000 ]
  - # 3
    frequency:    0.3217012783
    eigenvector:
    - # atom 1
      - [  0.00000000000001,  0.00000000000000 ]
      - [ -0.00000000000001,  0.00000000000000 ]
      - [ -0.75459732224314, -0.16446723468843 ]
    - # atom 2
      - [ -0.00921659100212,  0.04931667444746 ]
      - [ -0.00532120129609,  0.02847299526778 ]
      - [ -0.43519818617743, -0.09493754349874 ]
    - # atom 3
      - [  0.00921659100212, -0.04931667444746 ]
      - [  0.00532120129608, -0.02847299526778 ]
      - [ -0.43519818617743, -0.09493754349874 ]
  - # 4
    frequency:    8.2968707602
    eigenvector:
    - # atom 1
      - [  0.00000000000000,  0.00000000000000 ]
      - [ -0.00000000000000, -0.00000000000000 ]
      - [  0.00000000000000, -0.00000000000000 ]
    - # atom 2
      - [ -0.35003012260654, -0.04978868614498 ]
      - [  0.60626995653411,  0.08623653404520 ]
      - [ -0.00000000000000, -0.00000000000000 ]
    - # atom 3
      - [  0.35003012260654,  0.04978868614498 ]
      - [ -0.60626995653411, -0.08623653404520 ]
      - [ -0.00000000000000, -0.00000000000000 ]
  - # 5
    frequency:    8.3329940073
    eigenvector:
    - # atom 1
      - [ -0.00000000000000,  0.00000000000000 ]
      - [ -0.00000000000000, -0.00000000000000 ]
      - [ -0.00519913462374, -0.05079083650017 ]
    - # atom 2
      - [  0.60489314918582, -0.08027077474889 ]
      - [  0.34923522251338, -0.04634435340933 ]
      - [ -0.00482293720542, -0.04712971772113 ]
    - # atom 3
      - [ -0.60489314918582,  0.08027077474889 ]
      - [ -0.34923522251338,  0.04634435340933 ]
      - [ -0.00482293720542, -0.04712971772113 ]
  - # 6
    frequency:   11.1846288054
    eigenvector:
    - # atom 1
      - [ -0.31673115921191,  0.00000000000000 ]
      - [  0.54859446009509, -0.00000000000022 ]
      - [  0.00000000000000,  0.00000000000000 ]
    - # atom 2
      - [  0.27346902401277,  0.00744172679457 ]
      - [ -0.47366224388629, -0.01288944890406 ]
      - [ -0.00000000000002,  0.00000000000001 ]
    - # atom 3
      - [  0.27346902401277,  0.00744172679457 ]
      - [ -0.47366224388629, -0.01288944890406 ]
      - [  0.00000000000002, -0.00000000000001 ]
  - # 7
    frequency:   11.1599405386
    eigenvector:
    - # atom 1
      - [  0.53456141194722,  0.00000000000000 ]
      - [  0.30862917508619, -0.00000000000013 ]
      - [ -0.00000000000000,  0.00000000000000 ]
    - # atom 2
      - [ -0.46965695455934,  0.01280242041979 ]
      - [ -0.27115656914168,  0.00739148087575 ]
      - [ -0.00750632014208, -0.12295382798615 ]
    - # atom 3
      - [ -0.46965695455934,  0.01280242041979 ]
      - [ -0.27115656914168,  0.00739148087575 ]
      - [  0.00750632014208,  0.12295382798615 ]
  - # 8
    frequency:   11.8947353463
    eigenvector:
    - # atom 1
      - [  0.11592342164816,  0.00000000000000 ]
      - [  0.06692841869395,  0.00000000000000 ]
      - [  0.00000000000000, -0.00000000000000 ]
    - # atom 2
      - [ -0.07089719685108,  0.00104694529557 ]
      - [ -0.04093251568676,  0.00060445414822 ]
      - [  0.03791357156221,  0.69491034660062 ]
    - # atom 3
      - [ -0.07089719685108,  0.00104694529557 ]
      - [ -0.04093251568676,  0.00060445414822 ]
      - [ -0.03791357156221, -0.69491034660062 ]
  - # 9
    frequency:   13.6949585158
    eigenvector:
    - # atom 1
      - [  0.00000000000000,  0.00000000000000 ]
      - [ -0.00000000000000,  0.00000000000000 ]
      - [  0.56560385154220,  0.28463828453816 ]
    - # atom 2
      - [ -0.00507221260324,  0.01086616401173 ]
      - [ -0.00292844331187,  0.00627358271723 ]
      - [ -0.48868110795428, -0.24604004815297 ]
    - # atom 3
      - [  0.00507221260324, -0.01086616401173 ]
      - [  0.00292844331187, -0.00627358271723 ]
      - [ -0.48868110795428, -0.24604004815297 ]

- q-position: [    0.0500000,    0.0000000,    0.0000000 ]
  distance:    0.0181337
  band:
  - # 1
    frequency:    1.1908846328
    eigenvector:
    - # atom 1
      - [  0.67190344974783,  0.00000000000000 ]
      - [  0.38792363758133,  0.00000000000034 ]
      - [  0.00000000000000,  0.00000000000000 ]
    - # atom 2
      - [  0.38539389557604, -0.01297273025588 ]
      - [  0.22250726935485, -0.00748980930515 ]
      - [ -0.00089547637595, -0.02770148545887 ]
    - # atom 3
      - [  0.38539389557604, -0.01297273025588 ]
      - [  0.22250726935485, -0.00748980930515 ]
      - [  0.00089547637595,  0.02770148545887 ]
  - # 2
    frequency:    0.7028955363
    eigenvector:
    - # atom 1
      - [ -0.38673840588182,  0.00000000000000 ]
      - [  0.66985056822554,  0.00000000000060 ]
      - [  0.00000000000000, -0.00000000000000 ]
    - # atom 2
      - [ -0.22395880701394, -0.00769125925137 ]
      - [  0.38790803255069,  0.01332165179789 ]
      - [  0.00000000000001, -0.00000000000000 ]
    - # atom 3
      - [ -0.22395880701394, -0.00769125925137 ]
      - [  0.38790803255069,  0.01332165179789 ]
      - [ -0.00000000000001, -0.00000000000000 ]
  - # 3
    frequency:    0.4063912844
    eigenvector:
    - # atom 1
      - [  0.00000000000000,  0.00000000000000 ]
      - [ -0.00000000000000,  0.00000000000000 ]
      - [  0.08940410411597, -0.76611531549484 ]
    - # atom 2
      - [ -0.06213082847000, -0.00490679356886 ]
      - [ -0.03587125054213, -0.00283293858784 ]
      - [  0.05165377126318, -0.44123680043036 ]
    - # atom 3
      - [  0.06213082847001,  0.00490679356886 ]
      - [  0.03587125054213,  0.00283293858784 ]
      - [  0.05165377126318, -0.44123680043036 ]
  - # 4
    frequency:    8.3015996208
    eigenvector:
    - # atom 1
      - [ -0.00000000000000,  0.00000000000000 ]
      - [ -0.00000000000000,  0.00000000000000 ]
      - [  0.00000000000000, -0.00000000000000 ]
    - # atom 2
      - [ -0.35353149844391,  0.00393441329524 ]
      - [  0.61233451738089, -0.00681460372534 ]
      - [ -0.00000000000000, -0.00000000000000 ]
    - # atom 3
      - [  0.35353149844391, -0.00393441329524 ]
      - [ -0.61233451738089,  0.00681460372534 ]
      - [ -0.00000000000000, -0.00000000000000 ]
  - # 5
    frequency:    8.3575466472
    eigenvector:
    - # atom 1
      - [ -0.00000000000000,  0.00000000000000 ]
      - [  0.00000000000000, -0.00000000000000 ]
      - [ -0.00011917583650,  0.06323496246175 ]
    - # atom 2
      - [ -0.60862058819978,  0.02165038864615 ]
      - [ -0.35138726043145,  0.01249985771291 ]
      - [ -0.00012335929290,  0.05902232202092 ]
    - # atom 3
      - [  0.60862058819978, -0.02165038864615 ]
      - [  0.35138726043145, -0.01249985771291 ]
      - [ -0.00012335929290,  0.05902232202092 ]
  - # 6
    frequency:   11.1810624347
    eigenvector:
    - # atom 1
      - [ -0.31691229925013,  0.00000000000000 ]
      - [  0.54890820384460, -0.00000000000017 ]
      - [  0.00000000000000,  0.00000000000000 ]
    - # atom 2
      - [  0.27330423026416,  0.00938589429673 ]
      - [ -0.47337681274094, -0.01625684579627 ]
      - [ -0.00000000000002,  0.00000000000001 ]
    - # atom 3
      - [  0.27330423026416,  0.00938589429673 ]
      - [ -0.47337681274094, -0.01625684579627 ]
      - [  0.00000000000002, -0.00000000000001 ]
  - # 7
    frequency:   11.1431794043
    eigenvector:
    - # atom 1
      - [  0.52770496657362,  0.00000000000000 ]
      - [  0.30467060450404, -0.00000000000010 ]
      - [ -0.00000000000000, -0.00000000000000 ]
    - # atom 2
      - [ -0.46755244351173,  0.01609524109869 ]
      - [ -0.26994152912182,  0.00929259178109 ]
      - [ -0.01146006287676, -0.14967026035507 ]
    - # atom 3
      - [ -0.46755244351173,  0.01609524109869 ]
      - [ -0.26994152912182,  0.00929259178109 ]
      - [  0.01146006287676,  0.14967026035507 ]
  - # 8
    frequency:   11.9009680207
    eigenvector:
    - # atom 1
      - [  0.14168000024875,  0.00000000000000 ]
      - [  0.08179898628240,  0.00000000000000 ]
      - [  0.00000000000000,  0.00000000000000 ]
    - # atom 2
      - [ -0.08623476392606,  0.00157314755225 ]
      - [ -0.04978766416621,  0.00090825716277 ]