27   
3    

1    
  0.0053712069807748   0.0000000000000000   0.0084350539755046
  -0.1313550400   -0.0004135100   -0.2211845200
   0.0063679400    0.0062444400   -0.0051033100
   0.0061538100   -0.0058198100   -0.0051620000
   0.0025094000    0.0033233600   -0.0050964400
   0.0029706000   -0.0037946700   -0.0051692900
   0.0010558200   -0.0002296500    0.0007974400
   0.0022351600   -0.0077352700   -0.0050671100
   0.0018156200    0.0002152400    0.0007975700
   0.0024820900    0.0079532800   -0.0051986400
  -0.0025138600    0.0065324100    0.0234329200
   0.0482458800    0.0227887700    0.0543495200
   0.0006039900    0.0000149200    0.0013727400
   0.0002681800   -0.0002536800    0.0013900300
  -0.0023338900    0.0014552900    0.0017276100
   0.0002439300    0.0001481300    0.0014154400
   0.0087876400   -0.0291337100    0.0388173600
   0.0015934600   -0.0022301400    0.0019865800
  -0.0009923100    0.0008117500    0.0014960600
   0.0462655200   -0.0216278600    0.0526734200
  -0.0023836000   -0.0064485200    0.0234444800
   0.0005622600    0.0001221500    0.0015930300
   0.0001544800   -0.0002952100    0.0015401600
  -0.0023674600   -0.0015196600    0.0018212300
   0.0003160400    0.0000824500    0.0015862300
   0.0087952900    0.0282529200    0.0381245300
  -0.0010239900   -0.0007383200    0.0015585000
   0.0015430400    0.0022948900    0.0020564700

10   
  0.0053712069807748   0.0000000000000000   0.0084350539755046
  -0.0014581600    0.0057930000    0.0227073100
   0.0006890400    0.0005150700    0.0014704000
   0.0451464300    0.0208980500    0.0533314800
   0.0087629800   -0.0273845200    0.0381765900
   0.0002798800    0.0010903900    0.0009629600
   0.0003172900   -0.0020223000    0.0025727800
  -0.0001320200   -0.0000523600    0.0015024700
   0.0006977100    0.0004167300    0.0014370200
  -0.0023967400    0.0005946500    0.0017710100
  -0.0582696800    0.0001955300   -0.1177609600
   0.0045108700   -0.0003460400   -0.0042857700
   0.0026012700    0.0000311100   -0.0032083700
   0.0002264300   -0.0011671600   -0.0032814900
   0.0007899900    0.0027317700   -0.0040581500
  -0.0002815400   -0.0001298700   -0.0000529900
   0.0011130600   -0.0021769100   -0.0037973300
  -0.0002847200    0.0000767200    0.0000147500
  -0.0000993600    0.0009633900   -0.0034970800
  -0.0015140800    0.0000069800    0.0148429400
  -0.0005046700   -0.0004431300   -0.0004575500
   0.0022289600   -0.0017963600    0.0014031900
   0.0010427200   -0.0009360000    0.0002283300
  -0.0023518200   -0.0005206500    0.0005805100
   0.0001047000   -0.0001281300   -0.0006420000
  -0.0003762700    0.0003086800   -0.0007326300
   0.0001057800    0.0000767400   -0.0007083000
  -0.0009480400    0.0034046300    0.0014808700

10   
 -0.0053712069807748   0.0000000000000000  -0.0084350539755046
   0.0012131800   -0.0058994000   -0.0225793200
  -0.0007077000    0.0004026300   -0.0014862000
  -0.0469328600   -0.0221162000   -0.0552641900
  -0.0088162100    0.0273129800   -0.0387572200
   0.0005228400   -0.0015573700   -0.0009365200
  -0.0010689600    0.0015670000   -0.0026076600
  -0.0005987600    0.0004844000   -0.0015133900
   0.0000355400   -0.0000073600   -0.0014606600
   0.0024330200   -0.0003463100   -0.0017689300
   0.0601599200    0.0002005500    0.1201936400
  -0.0042501200    0.0004757600    0.0040435600
  -0.0028720800    0.0000897500    0.0030267500
  -0.0003349400    0.0011010300    0.0032339400
  -0.0006527400   -0.0028235100    0.0039905500
   0.0002874300   -0.0001294000   -0.0001722600
  -0.0010925100    0.0021754500    0.0037653500
   0.0002838200    0.0000769300   -0.0001041700
   0.0001022400   -0.0009813200    0.0035046300
   0.0015520900    0.0000074100   -0.0150270000
   0.0007035500    0.0005506100    0.0007084200
  -0.0024613300    0.0019161200   -0.0011869400
  -0.0011344800    0.0008586600   -0.0001249000
   0.0024952900    0.0004405400   -0.0004900900
  -0.0001064700   -0.0001276500    0.0008777700
   0.0003956800   -0.0002867700    0.0007918900
  -0.0001058900    0.0000769300    0.0008110700
   0.0009504500   -0.0034614500   -0.0014681100
