phonopy:
  version: 2.18.0
  frequency_unit_conversion_factor: 15.633302
  symmetry_tolerance: 1.00000e-05
  configuration:
    cell_filename: "POSCAR"
    displacement_distance: "0.01"
    create_displacements: ".true."
    dim: "3 3 1"

physical_unit:
  atomic_mass: "AMU"
  length: "angstrom"
  force_constants: "eV/angstrom^2"

space_group:
  type: "P-6m2"
  number: 187
  Hall_symbol: "P -6 2"

supercell_matrix:
- [   3,   0,   0 ]
- [   0,   3,   0 ]
- [   0,   0,   1 ]

primitive_cell:
  lattice:
  - [     3.183860468689844,     0.000000000000000,     0.000000000000000 ] # a
  - [    -1.591930234344922,     2.757304048003876,     0.000000000000000 ] # b
  - [     0.000000000000000,     0.000000000000000,    15.000000000000000 ] # c
  points:
  - symbol: Mo # 1
    coordinates: [  0.666666687000003,  0.333333343000000,  0.250000000000000 ]
    mass: 95.960000
  - symbol: S  # 2
    coordinates: [  0.333333343000000,  0.666666687000003,  0.354152130189635 ]
    mass: 32.065000
  - symbol: S  # 3
    coordinates: [  0.333333343000000,  0.666666687000003,  0.145847869810364 ]
    mass: 32.065000
  reciprocal_lattice: # without 2pi
  - [     0.314084115756335,     0.181336548779222,     0.000000000000000 ] # a*
  - [     0.000000000000000,     0.362673097558443,     0.000000000000000 ] # b*
  - [     0.000000000000000,     0.000000000000000,     0.066666666666667 ] # c*

unit_cell:
  lattice:
  - [     3.183860468689844,     0.000000000000000,     0.000000000000000 ] # a
  - [    -1.591930234344922,     2.757304048003877,     0.000000000000000 ] # b
  - [     0.000000000000000,     0.000000000000000,    15.000000000000000 ] # c
  points:
  - symbol: Mo # 1
    coordinates: [  0.666666687000003,  0.333333343000000,  0.250000000000000 ]
    mass: 95.960000
    reduced_to: 1
  - symbol: S  # 2
    coordinates: [  0.333333343000000,  0.666666687000003,  0.354152130189635 ]
    mass: 32.065000
    reduced_to: 2
  - symbol: S  # 3
    coordinates: [  0.333333343000000,  0.666666687000003,  0.145847869810364 ]
    mass: 32.065000
    reduced_to: 3

supercell:
  lattice:
  - [     9.551581406069531,     0.000000000000000,     0.000000000000000 ] # a
  - [    -4.775790703034765,     8.271912144011630,     0.000000000000000 ] # b
  - [     0.000000000000000,     0.000000000000000,    15.000000000000000 ] # c
  points:
  - symbol: Mo # 1
    coordinates: [  0.222222229000001,  0.111111114333333,  0.250000000000000 ]
    mass: 95.960000
    reduced_to: 1
  - symbol: Mo # 2
    coordinates: [  0.555555562333334,  0.111111114333333,  0.250000000000000 ]
    mass: 95.960000
    reduced_to: 1
  - symbol: Mo # 3
    coordinates: [  0.888888895666668,  0.111111114333333,  0.250000000000000 ]
    mass: 95.960000
    reduced_to: 1
  - symbol: Mo # 4
    coordinates: [  0.222222229000001,  0.444444447666667,  0.250000000000000 ]
    mass: 95.960000
    reduced_to: 1
  - symbol: Mo # 5
    coordinates: [  0.555555562333334,  0.444444447666667,  0.250000000000000 ]
    mass: 95.960000
    reduced_to: 1
  - symbol: Mo # 6
    coordinates: [  0.888888895666668,  0.444444447666667,  0.250000000000000 ]
    mass: 95.960000
    reduced_to: 1
  - symbol: Mo # 7
    coordinates: [  0.222222229000001,  0.777777781000000,  0.250000000000000 ]
    mass: 95.960000
    reduced_to: 1
  - symbol: Mo # 8
    coordinates: [  0.555555562333334,  0.777777781000000,  0.250000000000000 ]
    mass: 95.960000
    reduced_to: 1
  - symbol: Mo # 9
    coordinates: [  0.888888895666668,  0.777777781000000,  0.250000000000000 ]
    mass: 95.960000
    reduced_to: 1
  - symbol: S  # 10
    coordinates: [  0.111111114333333,  0.222222229000001,  0.354152130189635 ]
    mass: 32.065000
    reduced_to: 10
  - symbol: S  # 11
    coordinates: [  0.444444447666667,  0.222222229000001,  0.354152130189635 ]
    mass: 32.065000
    reduced_to: 10
  - symbol: S  # 12
    coordinates: [  0.777777781000000,  0.222222229000001,  0.354152130189635 ]
    mass: 32.065000
    reduced_to: 10
  - symbol: S  # 13
    coordinates: [  0.111111114333333,  0.555555562333334,  0.354152130189635 ]
    mass: 32.065000
    reduced_to: 10
  - symbol: S  # 14
    coordinates: [  0.444444447666667,  0.555555562333334,  0.354152130189635 ]
    mass: 32.065000
    reduced_to: 10
  - symbol: S  # 15
    coordinates: [  0.777777781000000,  0.555555562333334,  0.354152130189635 ]
    mass: 32.065000
    reduced_to: 10
  - symbol: S  # 16
    coordinates: [  0.111111114333333,  0.888888895666668,  0.354152130189635 ]
    mass: 32.065000
    reduced_to: 10
  - symbol: S  # 17
    coordinates: [  0.444444447666667,  0.888888895666668,  0.354152130189635 ]
    mass: 32.065000
    reduced_to: 10
  - symbol: S  # 18
    coordinates: [  0.777777781000000,  0.888888895666668,  0.354152130189635 ]
    mass: 32.065000
    reduced_to: 10
  - symbol: S  # 19
    coordinates: [  0.111111114333333,  0.222222229000001,  0.145847869810364 ]
    mass: 32.065000
    reduced_to: 19
  - symbol: S  # 20
    coordinates: [  0.444444447666667,  0.222222229000001,  0.145847869810364 ]
    mass: 32.065000
    reduced_to: 19
  - symbol: S  # 21
    coordinates: [  0.777777781000000,  0.222222229000001,  0.145847869810364 ]
    mass: 32.065000
    reduced_to: 19
  - symbol: S  # 22
    coordinates: [  0.111111114333333,  0.555555562333334,  0.145847869810364 ]
    mass: 32.065000
    reduced_to: 19
  - symbol: S  # 23
    coordinates: [  0.444444447666667,  0.555555562333334,  0.145847869810364 ]
    mass: 32.065000
    reduced_to: 19
  - symbol: S  # 24
    coordinates: [  0.777777781000000,  0.555555562333334,  0.145847869810364 ]
    mass: 32.065000
    reduced_to: 19
  - symbol: S  # 25
    coordinates: [  0.111111114333333,  0.888888895666668,  0.145847869810364 ]
    mass: 32.065000
    reduced_to: 19
  - symbol: S  # 26
    coordinates: [  0.444444447666667,  0.888888895666668,  0.145847869810364 ]
    mass: 32.065000
    reduced_to: 19
  - symbol: S  # 27
    coordinates: [  0.777777781000000,  0.888888895666668,  0.145847869810364 ]
    mass: 32.065000
    reduced_to: 19

displacements:
- atom:    1
  displacement:
    [   0.0053712069807748,  0.0000000000000000,  0.0084350539755046 ]
- atom:   10
  displacement:
    [   0.0053712069807748,  0.0000000000000000,  0.0084350539755046 ]
- atom:   10
  displacement:
    [  -0.0053712069807748,  0.0000000000000000, -0.0084350539755046 ]
