  27  27   0   0
  0.4389436E+02  0.9551582E-09  0.9551582E-09  0.1500000E-08  0.5000000E-15
  1.000000000000000E-004
  CAR 
 unknown system                          
      5.85078613    -64.81613021  301     -0.24423540      1.00000000
    -64.816  0.0000E+00  0.0000E+00
    -64.581  0.0000E+00  0.0000E+00
    -64.345  0.0000E+00  0.0000E+00
    -64.109  0.0000E+00  0.0000E+00
    -63.874  0.0000E+00  0.0000E+00
    -63.638  0.0000E+00  0.0000E+00
    -63.403  0.0000E+00  0.0000E+00
    -63.167  0.0000E+00  0.0000E+00
    -62.932  0.0000E+00  0.0000E+00
    -62.696  0.0000E+00  0.0000E+00
    -62.461  0.0000E+00  0.0000E+00
    -62.225  0.0000E+00  0.0000E+00
    -61.989  0.3249E-06  0.7653E-07
    -61.754  0.5035E+00  0.1186E+00
    -61.518  0.5987E+02  0.1422E+02
    -61.283  0.1604E+02  0.1800E+02
    -61.047  0.1548E-02  0.1800E+02
    -60.812  0.4727E-11  0.1800E+02
    -60.576  0.0000E+00  0.1800E+02
    -60.341  0.0000E+00  0.1800E+02
    -60.105  0.0000E+00  0.1800E+02
    -59.869  0.0000E+00  0.1800E+02
    -59.634  0.0000E+00  0.1800E+02
    -59.398  0.0000E+00  0.1800E+02
    -59.163  0.0000E+00  0.1800E+02
    -58.927  0.0000E+00  0.1800E+02
    -58.692  0.0000E+00  0.1800E+02
    -58.456  0.0000E+00  0.1800E+02
    -58.221  0.0000E+00  0.1800E+02
    -57.985  0.0000E+00  0.1800E+02
    -57.749  0.0000E+00  0.1800E+02
    -57.514  0.0000E+00  0.1800E+02
    -57.278  0.0000E+00  0.1800E+02
    -57.043  0.0000E+00  0.1800E+02
    -56.807  0.0000E+00  0.1800E+02
    -56.572  0.0000E+00  0.1800E+02
    -56.336  0.0000E+00  0.1800E+02
    -56.101  0.0000E+00  0.1800E+02
    -55.865  0.0000E+00  0.1800E+02
    -55.629  0.0000E+00  0.1800E+02
    -55.394  0.0000E+00  0.1800E+02
    -55.158  0.0000E+00  0.1800E+02
    -54.923  0.0000E+00  0.1800E+02
    -54.687  0.0000E+00  0.1800E+02
    -54.452  0.0000E+00  0.1800E+02
    -54.216  0.0000E+00  0.1800E+02
    -53.981  0.0000E+00  0.1800E+02
    -53.745  0.0000E+00  0.1800E+02
    -53.509  0.0000E+00  0.1800E+02
    -53.274  0.0000E+00  0.1800E+02
    -53.038  0.0000E+00  0.1800E+02
    -52.803  0.0000E+00  0.1800E+02
    -52.567  0.0000E+00  0.1800E+02
    -52.332  0.0000E+00  0.1800E+02
    -52.096  0.0000E+00  0.1800E+02
    -51.861  0.0000E+00  0.1800E+02
    -51.625  0.0000E+00  0.1800E+02
    -51.389  0.0000E+00  0.1800E+02
    -51.154  0.0000E+00  0.1800E+02
    -50.918  0.0000E+00  0.1800E+02
    -50.683  0.0000E+00  0.1800E+02
    -50.447  0.0000E+00  0.1800E+02
    -50.212  0.0000E+00  0.1800E+02
    -49.976  0.0000E+00  0.1800E+02
    -49.741  0.0000E+00  0.1800E+02
    -49.505  0.0000E+00  0.1800E+02
    -49.269  0.0000E+00  0.1800E+02
    -49.034  0.0000E+00  0.1800E+02
    -48.798  0.0000E+00  0.1800E+02
    -48.563  0.0000E+00  0.1800E+02
    -48.327  0.0000E+00  0.1800E+02
    -48.092  0.0000E+00  0.1800E+02
    -47.856  0.0000E+00  0.1800E+02
    -47.621  0.0000E+00  0.1800E+02
    -47.385  0.0000E+00  0.1800E+02
    -47.149  0.0000E+00  0.1800E+02
    -46.914  0.0000E+00  0.1800E+02
    -46.678  0.0000E+00  0.1800E+02
    -46.443  0.0000E+00  0.1800E+02
    -46.207  0.0000E+00  0.1800E+02
    -45.972  0.0000E+00  0.1800E+02
    -45.736  0.0000E+00  0.1800E+02
    -45.501  0.0000E+00  0.1800E+02
    -45.265  0.0000E+00  0.1800E+02
    -45.029  0.0000E+00  0.1800E+02
    -44.794  0.0000E+00  0.1800E+02
    -44.558  0.0000E+00  0.1800E+02
    -44.323  0.0000E+00  0.1800E+02
    -44.087  0.0000E+00  0.1800E+02
    -43.852  0.0000E+00  0.1800E+02
    -43.616  0.0000E+00  0.1800E+02
    -43.380  0.0000E+00  0.1800E+02
    -43.145  0.0000E+00  0.1800E+02
    -42.909  0.0000E+00  0.1800E+02
    -42.674  0.0000E+00  0.1800E+02
    -42.438  0.0000E+00  0.1800E+02
    -42.203  0.0000E+00  0.1800E+02
    -41.967  0.0000E+00  0.1800E+02
    -41.732  0.0000E+00  0.1800E+02
    -41.496  0.0000E+00  0.1800E+02
    -41.260  0.0000E+00  0.1800E+02
    -41.025  0.0000E+00  0.1800E+02
    -40.789  0.0000E+00  0.1800E+02
    -40.554  0.0000E+00  0.1800E+02
    -40.318  0.0000E+00  0.1800E+02
    -40.083  0.0000E+00  0.1800E+02
    -39.847  0.0000E+00  0.1800E+02
    -39.612  0.0000E+00  0.1800E+02
    -39.376  0.0000E+00  0.1800E+02
    -39.140  0.0000E+00  0.1800E+02
    -38.905  0.0000E+00  0.1800E+02
    -38.669  0.0000E+00  0.1800E+02
    -38.434  0.0000E+00  0.1800E+02
    -38.198  0.0000E+00  0.1800E+02
    -37.963  0.0000E+00  0.1800E+02
    -37.727  0.0000E+00  0.1800E+02
    -37.492  0.0000E+00  0.1800E+02
    -37.256  0.0000E+00  0.1800E+02
    -37.020  0.0000E+00  0.1800E+02
    -36.785  0.0000E+00  0.1800E+02
    -36.549  0.0000E+00  0.1800E+02
    -36.314  0.2142E-07  0.1800E+02
    -36.078  0.7692E-01  0.1802E+02
    -35.843  0.3057E+02  0.2522E+02
    -35.607  0.1504E+03  0.6065E+02
    -35.372  0.4808E+02  0.7198E+02
    -35.136  0.9333E-01  0.7200E+02
    -34.900  0.2851E-07  0.7200E+02
    -34.665  0.0000E+00  0.7200E+02
    -34.429  0.0000E+00  0.7200E+02
    -34.194  0.0000E+00  0.7200E+02
    -33.958  0.0000E+00  0.7200E+02
    -33.723  0.0000E+00  0.7200E+02
    -33.487  0.0000E+00  0.7200E+02
    -33.252  0.0000E+00  0.7200E+02
    -33.016  0.0000E+00  0.7200E+02
    -32.780  0.0000E+00  0.7200E+02
    -32.545  0.0000E+00  0.7200E+02
    -32.309  0.0000E+00  0.7200E+02
    -32.074  0.0000E+00  0.7200E+02
    -31.838  0.0000E+00  0.7200E+02
    -31.603  0.0000E+00  0.7200E+02
    -31.367  0.0000E+00  0.7200E+02
    -31.132  0.0000E+00  0.7200E+02
    -30.896  0.0000E+00  0.7200E+02
    -30.660  0.0000E+00  0.7200E+02
    -30.425  0.0000E+00  0.7200E+02
    -30.189  0.0000E+00  0.7200E+02
    -29.954  0.0000E+00  0.7200E+02
    -29.718  0.0000E+00  0.7200E+02
    -29.483  0.0000E+00  0.7200E+02
    -29.247  0.0000E+00  0.7200E+02
    -29.012  0.0000E+00  0.7200E+02
    -28.776  0.0000E+00  0.7200E+02
    -28.540  0.0000E+00  0.7200E+02
    -28.305  0.0000E+00  0.7200E+02
    -28.069  0.0000E+00  0.7200E+02
    -27.834  0.0000E+00  0.7200E+02
    -27.598  0.0000E+00  0.7200E+02
    -27.363  0.0000E+00  0.7200E+02
    -27.127  0.0000E+00  0.7200E+02
    -26.892  0.0000E+00  0.7200E+02
    -26.656  0.0000E+00  0.7200E+02
    -26.420  0.0000E+00  0.7200E+02
    -26.185  0.0000E+00  0.7200E+02
    -25.949  0.0000E+00  0.7200E+02
    -25.714  0.0000E+00  0.7200E+02
    -25.478  0.0000E+00  0.7200E+02
    -25.243  0.0000E+00  0.7200E+02
    -25.007  0.0000E+00  0.7200E+02
    -24.772  0.0000E+00  0.7200E+02
    -24.536  0.0000E+00  0.7200E+02
    -24.300  0.0000E+00  0.7200E+02
    -24.065  0.0000E+00  0.7200E+02
    -23.829  0.0000E+00  0.7200E+02
    -23.594  0.0000E+00  0.7200E+02
    -23.358  0.0000E+00  0.7200E+02
    -23.123  0.0000E+00  0.7200E+02
    -22.887  0.0000E+00  0.7200E+02
    -22.652  0.0000E+00  0.7200E+02
    -22.416  0.0000E+00  0.7200E+02
    -22.180  0.0000E+00  0.7200E+02
    -21.945  0.0000E+00  0.7200E+02
    -21.709  0.0000E+00  0.7200E+02
    -21.474  0.0000E+00  0.7200E+02
    -21.238  0.0000E+00  0.7200E+02
    -21.003  0.0000E+00  0.7200E+02
    -20.767  0.0000E+00  0.7200E+02
    -20.532  0.0000E+00  0.7200E+02
    -20.296  0.0000E+00  0.7200E+02
    -20.060  0.0000E+00  0.7200E+02
    -19.825  0.0000E+00  0.7200E+02
    -19.589  0.0000E+00  0.7200E+02
    -19.354  0.0000E+00  0.7200E+02
    -19.118  0.0000E+00  0.7200E+02
    -18.883  0.0000E+00  0.7200E+02
    -18.647  0.0000E+00  0.7200E+02
    -18.412  0.0000E+00  0.7200E+02
    -18.176  0.0000E+00  0.7200E+02
    -17.940  0.0000E+00  0.7200E+02
    -17.705  0.0000E+00  0.7200E+02
    -17.469  0.0000E+00  0.7200E+02
    -17.234  0.0000E+00  0.7200E+02
    -16.998  0.0000E+00  0.7200E+02
    -16.763  0.0000E+00  0.7200E+02
    -16.527  0.0000E+00  0.7200E+02
    -16.292  0.0000E+00  0.7200E+02
    -16.056  0.0000E+00  0.7200E+02
    -15.820  0.0000E+00  0.7200E+02
    -15.585  0.0000E+00  0.7200E+02
    -15.349  0.1434E-14  0.7200E+02
    -15.114  0.2002E-05  0.7200E+02
    -14.878  0.1091E+00  0.7203E+02
    -14.643  0.3031E+01  0.7274E+02
    -14.407  0.4726E+01  0.7385E+02
    -14.172  0.5092E+01  0.7505E+02
    -13.936  0.5561E+01  0.7636E+02
    -13.700  0.6203E+01  0.7782E+02
    -13.465  0.9617E+01  0.8009E+02
    -13.229  0.2030E+02  0.8487E+02
    -12.994  0.2901E+02  0.9170E+02
    -12.758  0.4429E+02  0.1021E+03
    -12.523  0.2445E+02  0.1079E+03
    -12.287  0.4532E+00  0.1080E+03
    -12.051  0.4855E-05  0.1080E+03
    -11.816  0.1506E-14  0.1080E+03
    -11.580  0.0000E+00  0.1080E+03
    -11.345  0.0000E+00  0.1080E+03
    -11.109  0.0000E+00  0.1080E+03
    -10.874  0.0000E+00  0.1080E+03
    -10.638  0.0000E+00  0.1080E+03
    -10.403  0.0000E+00  0.1080E+03
    -10.167  0.0000E+00  0.1080E+03
     -9.931  0.0000E+00  0.1080E+03
     -9.696  0.0000E+00  0.1080E+03
     -9.460  0.0000E+00  0.1080E+03
     -9.225  0.0000E+00  0.1080E+03
     -8.989  0.0000E+00  0.1080E+03
     -8.754  0.0000E+00  0.1080E+03
     -8.518  0.0000E+00  0.1080E+03
     -8.283  0.0000E+00  0.1080E+03
     -8.047  0.0000E+00  0.1080E+03
     -7.811  0.0000E+00  0.1080E+03
     -7.576  0.0000E+00  0.1080E+03
     -7.340  0.0000E+00  0.1080E+03
     -7.105  0.0000E+00  0.1080E+03
     -6.869  0.1654E-07  0.1080E+03
     -6.634  0.1971E-01  0.1080E+03
     -6.398  0.3827E+01  0.1089E+03
     -6.163  0.1358E+02  0.1121E+03
     -5.927  0.2426E+02  0.1178E+03
     -5.691  0.3690E+02  0.1265E+03
     -5.456  0.2216E+02  0.1317E+03
     -5.220  0.1111E+02  0.1343E+03
     -4.985  0.6985E+01  0.1360E+03
     -4.749  0.1189E+02  0.1388E+03
     -4.514  0.4354E+02  0.1490E+03
     -4.278  0.2558E+02  0.1551E+03
     -4.043  0.1391E+02  0.1584E+03
     -3.807  0.4234E+02  0.1683E+03
     -3.571  0.2664E+02  0.1746E+03
     -3.336  0.1491E+02  0.1781E+03
     -3.100  0.1505E+02  0.1817E+03
     -2.865  0.1646E+02  0.1855E+03
     -2.629  0.2734E+02  0.1920E+03
     -2.394  0.3654E+02  0.2006E+03
     -2.158  0.2314E+02  0.2060E+03
     -1.923  0.1885E+02  0.2105E+03
     -1.687  0.2192E+02  0.2156E+03
     -1.451  0.2521E+02  0.2216E+03
     -1.216  0.2363E+02  0.2271E+03
     -0.980  0.1685E+02  0.2311E+03
     -0.745  0.1065E+02  0.2336E+03
     -0.509  0.1623E+01  0.2340E+03
     -0.274  0.6566E-03  0.2340E+03
     -0.038  0.1764E-10  0.2340E+03
      0.197  0.0000E+00  0.2340E+03
      0.433  0.1115E-12  0.2340E+03
      0.669  0.2258E-04  0.2340E+03
      0.904  0.2264E+00  0.2341E+03
      1.140  0.3620E+01  0.2349E+03
      1.375  0.2349E+02  0.2404E+03
      1.611  0.4525E+02  0.2511E+03
      1.846  0.4249E+02  0.2611E+03
      2.082  0.3851E+02  0.2702E+03
      2.317  0.2464E+02  0.2760E+03
      2.553  0.1560E+02  0.2797E+03
      2.789  0.1448E+01  0.2800E+03
      3.024  0.4583E-02  0.2800E+03
      3.260  0.3956E-08  0.2800E+03
      3.495  0.0000E+00  0.2800E+03
      3.731  0.0000E+00  0.2800E+03
      3.966  0.0000E+00  0.2800E+03
      4.202  0.0000E+00  0.2800E+03
      4.437  0.0000E+00  0.2800E+03
      4.673  0.0000E+00  0.2800E+03
      4.909  0.0000E+00  0.2800E+03
      5.144  0.0000E+00  0.2800E+03
      5.380  0.0000E+00  0.2800E+03
      5.615  0.0000E+00  0.2800E+03
      5.851  0.0000E+00  0.2800E+03
