 vasp.5.4.4.18Apr17-6-g9f103f2a35 (build Apr 28 2023 10:04:10) complex          
  
 executed on             LinuxIFC date 2023.11.10  22:07:41
 running on   20 total cores
 distrk:  each k-point on   20 cores,    1 groups
 distr:  one band on NCORES_PER_BAND=  10 cores,    2 groups


--------------------------------------------------------------------------------------------------------


 INCAR:
 POTCAR:    PAW_PBE Mo_sv 02Feb2006               
 POTCAR:    PAW_PBE S 06Sep2000                   

 ----------------------------------------------------------------------------- 
|                                                                             |
|           W    W    AA    RRRRR   N    N  II  N    N   GGGG   !!!           |
|           W    W   A  A   R    R  NN   N  II  NN   N  G    G  !!!           |
|           W    W  A    A  R    R  N N  N  II  N N  N  G       !!!           |
|           W WW W  AAAAAA  RRRRR   N  N N  II  N  N N  G  GGG   !            |
|           WW  WW  A    A  R   R   N   NN  II  N   NN  G    G                |
|           W    W  A    A  R    R  N    N  II  N    N   GGGG   !!!           |
|                                                                             |
|      For optimal performance we recommend to set                            |
|        NCORE= 4 - approx SQRT( number of cores)                             |
|      NCORE specifies how many cores store one orbital (NPAR=cpu/NCORE).     |
|      This setting can  greatly improve the performance of VASP for DFT.     |
|      The default,   NCORE=1            might be grossly inefficient         |
|      on modern multi-core architectures or massively parallel machines.     |
|      Do your own testing !!!!                                               |
|      Unfortunately you need to use the default for GW and RPA calculations. |
|      (for HF NCORE is supported but not extensively tested yet)             |
|                                                                             |
 ----------------------------------------------------------------------------- 

 POTCAR:    PAW_PBE Mo_sv 02Feb2006               
   VRHFIN =Mo: 4p5s4d                                                           
   LEXCH  = PE                                                                  
   EATOM  =  1862.2866 eV,  136.8742 Ry                                         
                                                                                
   TITEL  = PAW_PBE Mo_sv 02Feb2006                                             
   LULTRA =        F    use ultrasoft PP ?                                      
   IUNSCR =        1    unscreen: 0-lin 1-nonlin 2-no                           
   RPACOR =    2.200    partial core radius                                     
   POMASS =   95.940; ZVAL   =   14.000    mass and valenz                      
   RCORE  =    2.500    outmost cutoff radius                                   
   RWIGS  =    2.750; RWIGS  =    1.455    wigner-seitz radius (au A)           
   ENMAX  =  242.676; ENMIN  =  182.007 eV                                      
   ICORE  =        3    local potential                                         
   LCOR   =        T    correct aug charges                                     
   LPAW   =        T    paw PP                                                  
   EAUG   =  446.014                                                            
   DEXC   =    0.000                                                            
   RMAX   =    2.563    core radius for proj-oper                               
   RAUG   =    1.300    factor for augmentation sphere                          
   RDEP   =    2.641    radius for radial grids                                 
   RDEPT  =    2.031    core radius for aug-charge                              
                                                                                
   Atomic configuration                                                         
   11 entries                                                                   
     n  l   j            E        occ.                                          
     1  0  0.50    -19819.0341   2.0000                                         
     2  0  0.50     -2799.0127   2.0000                                         
     2  1  1.50     -2502.0276   6.0000                                         
     3  0  0.50      -476.4449   2.0000                                         
     3  1  1.50      -379.1496   6.0000                                         
     3  2  2.50      -220.9367  10.0000                                         
     4  0  0.50       -64.3378   2.0000                                         
     5  0  0.50        -4.0862   1.0000                                         
     4  1  1.50       -38.4773   6.0000                                         
     4  2  2.50        -3.7535   5.0000                                         
     4  3  2.50        -1.3606   0.0000                                         
   Description                                                                  
     l       E           TYP  RCUT    TYP  RCUT                                 
     0    -64.3377829     23  2.100                                             
     0     -4.0861640     23  2.400                                             
     1    -38.4772993     23  2.100                                             
     1     13.6058260     23  2.100                                             
     2     -3.7534941     23  2.400                                             
     2     -5.1140767     23  2.400                                             
     3     -4.0817478     23  2.500                                             
  local pseudopotential read in
  partial core-charges read in
  partial kinetic energy density read in
  atomic valenz-charges read in
  non local Contribution for L=           0  read in
    real space projection operators read in
  non local Contribution for L=           0  read in
    real space projection operators read in
  non local Contribution for L=           1  read in
    real space projection operators read in
  non local Contribution for L=           1  read in
    real space projection operators read in
  non local Contribution for L=           2  read in
    real space projection operators read in
  non local Contribution for L=           2  read in
    real space projection operators read in
    PAW grid and wavefunctions read in
 
   number of l-projection  operators is LMAX  =           6
   number of lm-projection operators is LMMAX =          18
 
 POTCAR:    PAW_PBE S 06Sep2000                   
   VRHFIN =S : s2p4                                                             
   LEXCH  = PE                                                                  
   EATOM  =   276.8230 eV,   20.3459 Ry                                         
                                                                                
   TITEL  = PAW_PBE S 06Sep2000                                                 
   LULTRA =        F    use ultrasoft PP ?                                      
   IUNSCR =        1    unscreen: 0-lin 1-nonlin 2-no                           
   RPACOR =    1.500    partial core radius                                     
   POMASS =   32.066; ZVAL   =    6.000    mass and valenz                      
   RCORE  =    1.900    outmost cutoff radius                                   
   RWIGS  =    2.200; RWIGS  =    1.164    wigner-seitz radius (au A)           
   ENMAX  =  258.689; ENMIN  =  194.016 eV                                      
   ICORE  =        2    local potential                                         
   LCOR   =        T    correct aug charges                                     
   LPAW   =        T    paw PP                                                  
   EAUG   =  335.092                                                            
   DEXC   =    0.000                                                            
   RMAX   =    1.942    core radius for proj-oper                               
   RAUG   =    1.300    factor for augmentation sphere                          
   RDEP   =    1.954    radius for radial grids                                 
   RDEPT  =    1.744    core radius for aug-charge                              
                                                                                
   Atomic configuration                                                         
    6 entries                                                                   
     n  l   j            E        occ.                                          
     1  0  0.50     -2405.8406   2.0000                                         
     2  0  0.50      -211.7007   2.0000                                         
     2  1  1.50      -156.4958   6.0000                                         
     3  0  0.50       -17.2562   2.0000                                         
     3  1  0.50        -7.0085   4.0000                                         
     3  2  1.50        -6.8029   0.0000                                         
   Description                                                                  
     l       E           TYP  RCUT    TYP  RCUT                                 
     0    -17.2561641     23  1.900                                             
     0    -15.8743224     23  1.900                                             
     1     -7.0085400     23  1.900                                             
     1     -2.7779785     23  1.900                                             
     2     -6.8029130     23  1.900                                             
  local pseudopotential read in
  partial core-charges read in
  partial kinetic energy density read in
  atomic valenz-charges read in
  non local Contribution for L=           0  read in
    real space projection operators read in
  non local Contribution for L=           0  read in
    real space projection operators read in
  non local Contribution for L=           1  read in
    real space projection operators read in
  non local Contribution for L=           1  read in
    real space projection operators read in
    PAW grid and wavefunctions read in
 
   number of l-projection  operators is LMAX  =           4
   number of lm-projection operators is LMMAX =           8
 

 ----------------------------------------------------------------------------- 
|                                                                             |
|  ADVICE TO THIS USER RUNNING 'VASP/VAMP'   (HEAR YOUR MASTER'S VOICE ...):  |
|                                                                             |
|      You have a (more or less) 'large supercell' and for larger cells       |
|      it might be more efficient to use real space projection opertators     |
|      So try LREAL= Auto  in the INCAR   file.                               |
|      Mind:          For very  accurate calculation you might also keep the  |
|      reciprocal projection scheme          (i.e. LREAL=.FALSE.)             |
|                                                                             |
 ----------------------------------------------------------------------------- 

  PAW_PBE Mo_sv 02Feb2006               :
 energy of atom  1       EATOM=-1862.2866
 kinetic energy error for atom=    0.0074 (will be added to EATOM!!)
  PAW_PBE S 06Sep2000                   :
 energy of atom  2       EATOM= -276.8230
 kinetic energy error for atom=    0.0020 (will be added to EATOM!!)
 
 
 POSCAR: generated by phonopy                    
  positions in direct lattice
  No initial velocities read in
 exchange correlation table for  LEXCH =        8
   RHO(1)=    0.500       N(1)  =     2000
   RHO(2)=  100.500       N(2)  =     4000
 


--------------------------------------------------------------------------------------------------------


 ion  position               nearest neighbor table
   1  0.222  0.111  0.250-  10 2.41  11 2.41  20 2.41  16 2.41  25 2.41  19 2.41   2 3.18   3 3.18
                             5 3.18   4 3.18   7 3.18   9 3.18
   2  0.556  0.111  0.250-  12 2.41  21 2.41  17 2.41  26 2.41  11 2.41  20 2.41   1 3.18   3 3.18
                             7 3.18   6 3.18   5 3.18   8 3.18
   3  0.889  0.111  0.250-  10 2.40  19 2.41  18 2.41  27 2.41  21 2.41  12 2.41   1 3.18   2 3.18
                             8 3.18   9 3.18   4 3.18   6 3.18
   4  0.222  0.444  0.250-  10 2.41  14 2.41  23 2.41  19 2.41  22 2.41  13 2.41   5 3.18   6 3.18
                             7 3.18   8 3.18   1 3.18   3 3.18
   5  0.556  0.444  0.250-  15 2.41  24 2.41  20 2.41  11 2.41  23 2.41  14 2.41   4 3.18   6 3.18
                             8 3.18   1 3.18   9 3.18   2 3.18
   6  0.889  0.444  0.250-  13 2.41  22 2.41  21 2.41  12 2.41  15 2.41  24 2.41   4 3.18   5 3.18
                             9 3.18   7 3.18   2 3.18   3 3.18
   7  0.222  0.778  0.250-  17 2.41  26 2.41  22 2.41  13 2.41  25 2.41  16 2.41   8 3.18   9 3.18
                             4 3.18   2 3.18   6 3.18   1 3.18
   8  0.556  0.778  0.250-  18 2.41  27 2.41  23 2.41  14 2.41  26 2.41  17 2.41   7 3.18   9 3.18
                             4 3.18   5 3.18   2 3.18   3 3.18
   9  0.889  0.778  0.250-  16 2.41  25 2.41  24 2.41  15 2.41  18 2.41  27 2.41   7 3.18   8 3.18
                             6 3.18   5 3.18   1 3.18   3 3.18
  10  0.111  0.222  0.354-   3 2.40   4 2.41   1 2.41
  11  0.444  0.222  0.354-   1 2.41   5 2.41   2 2.41
  12  0.778  0.222  0.354-   2 2.41   6 2.41   3 2.41
  13  0.111  0.556  0.354-   6 2.41   7 2.41   4 2.41
  14  0.444  0.556  0.354-   4 2.41   8 2.41   5 2.41
  15  0.778  0.556  0.354-   5 2.41   9 2.41   6 2.41
  16  0.111  0.889  0.354-   9 2.41   1 2.41   7 2.41
  17  0.444  0.889  0.354-   7 2.41   2 2.41   8 2.41
  18  0.778  0.889  0.354-   8 2.41   3 2.41   9 2.41
  19  0.111  0.222  0.146-   3 2.41   4 2.41   1 2.41
  20  0.444  0.222  0.146-   1 2.41   5 2.41   2 2.41
  21  0.778  0.222  0.146-   2 2.41   6 2.41   3 2.41
  22  0.111  0.556  0.146-   6 2.41   7 2.41   4 2.41
  23  0.444  0.556  0.146-   4 2.41   8 2.41   5 2.41
  24  0.778  0.556  0.146-   5 2.41   9 2.41   6 2.41
  25  0.111  0.889  0.146-   9 2.41   1 2.41   7 2.41
  26  0.444  0.889  0.146-   7 2.41   2 2.41   8 2.41
  27  0.778  0.889  0.146-   8 2.41   3 2.41   9 2.41
 
  LATTYP: Found a hexagonal cell.
 ALAT       =     9.5515814061
 C/A-ratio  =     1.5704205788
  
  Lattice vectors:
  
 A1 = (   9.5515814061,   0.0000000000,   0.0000000000)
 A2 = (  -4.7757907030,   8.2719121440,   0.0000000000)
 A3 = (   0.0000000000,   0.0000000000,  15.0000000000)


Analysis of symmetry for initial positions (statically):
=====================================================================
 Subroutine PRICEL returns:
 Original cell was already a primitive cell.
 

 Routine SETGRP: Setting up the symmetry group for a 
 hexagonal supercell.


 Subroutine GETGRP returns: Found  1 space group operations
 (whereof  1 operations were pure point group operations)
 out of a pool of 24 trial point group operations.


The static configuration has the point symmetry C_1 .


Analysis of symmetry for dynamics (positions and initial velocities):
=====================================================================
 Subroutine PRICEL returns:
 Original cell was already a primitive cell.
 

 Routine SETGRP: Setting up the symmetry group for a 
 hexagonal supercell.


 Subroutine GETGRP returns: Found  1 space group operations
 (whereof  1 operations were pure point group operations)
 out of a pool of 24 trial point group operations.


The dynamic configuration has the point symmetry C_1 .


 Subroutine INISYM returns: Found  1 space group operations
 (whereof  1 operations are pure point group operations),
 and found     1 'primitive' translations

 
 
 KPOINTS: K-Spacing Value to Generate K-Mesh: 0.04

Automatic generation of k-mesh.
Space group operators:
 irot       det(A)        alpha          n_x          n_y          n_z        tau_x        tau_y        tau_z
    1     1.000000     0.000001     1.000000     0.000000     0.000000     0.000000     0.000000     0.000000
 
 Subroutine IBZKPT returns following result:
 ===========================================
 
 Found    216 irreducible k-points:
 
 Following reciprocal coordinates:
            Coordinates               Weight
  0.041667  0.041667  0.000000     16.000000
  0.083333 -0.041667  0.000000     16.000000
  0.041667 -0.083333  0.000000     16.000000
  0.125000  0.041667  0.000000     16.000000
  0.166667 -0.125000  0.000000     16.000000
  0.041667 -0.166667  0.000000     16.000000
 -0.041667 -0.125000  0.000000     16.000000
  0.125000 -0.166667  0.000000     16.000000
  0.166667 -0.041667  0.000000     16.000000
  0.208333  0.041667  0.000000     16.000000
  0.250000 -0.208333  0.000000     16.000000
  0.041667 -0.250000  0.000000     16.000000
 -0.041667 -0.208333  0.000000     16.000000
  0.208333 -0.250000  0.000000     16.000000
  0.250000 -0.041667  0.000000     16.000000
  0.291667  0.041667  0.000000     16.000000
  0.333333 -0.291667  0.000000     16.000000
  0.041667 -0.333333  0.000000     16.000000
 -0.041667 -0.291667  0.000000     16.000000
  0.291667 -0.333333  0.000000     16.000000
  0.333333 -0.041667  0.000000     16.000000
  0.375000  0.041667  0.000000     16.000000
  0.416667 -0.375000  0.000000     16.000000
  0.041667 -0.416667  0.000000     16.000000
 -0.041667 -0.375000  0.000000     16.000000
  0.375000 -0.416667  0.000000     16.000000
  0.416667 -0.041667  0.000000     16.000000
  0.458333  0.041667  0.000000     16.000000
  0.500000 -0.458333  0.000000     16.000000
  0.041667  0.500000  0.000000     16.000000
 -0.041667 -0.458333  0.000000     16.000000
  0.458333  0.500000  0.000000     16.000000
  0.500000 -0.041667  0.000000     16.000000
 -0.458333  0.041667  0.000000     16.000000
 -0.416667  0.458333  0.000000     16.000000
  0.041667  0.416667  0.000000     16.000000
 -0.041667  0.458333  0.000000     16.000000
 -0.458333  0.416667  0.000000     16.000000
 -0.416667 -0.041667  0.000000     16.000000
 -0.375000  0.041667  0.000000     16.000000
 -0.333333  0.375000  0.000000     16.000000
  0.041667  0.333333  0.000000     16.000000
 -0.041667  0.375000  0.000000     16.000000
 -0.375000  0.333333  0.000000     16.000000
 -0.333333 -0.041667  0.000000     16.000000
 -0.291667  0.041667  0.000000     16.000000
 -0.250000  0.291667  0.000000     16.000000
  0.041667  0.250000  0.000000     16.000000
 -0.041667  0.291667  0.000000     16.000000
 -0.291667  0.250000  0.000000     16.000000
 -0.250000 -0.041667  0.000000     16.000000
 -0.208333  0.041667  0.000000     16.000000
 -0.166667  0.208333  0.000000     16.000000
  0.041667  0.166667  0.000000     16.000000
 -0.041667  0.208333  0.000000     16.000000
 -0.208333  0.166667  0.000000     16.000000
 -0.166667 -0.041667  0.000000     16.000000
 -0.125000  0.041667  0.000000     16.000000
 -0.083333  0.125000  0.000000     16.000000
  0.041667  0.083333  0.000000     16.000000
 -0.041667  0.125000  0.000000     16.000000
 -0.125000  0.083333  0.000000     16.000000
 -0.083333 -0.041667  0.000000     16.000000
 -0.041667  0.041667  0.000000     16.000000
  0.000000  0.041667  0.000000     16.000000
  0.041667  0.000000  0.000000     16.000000
  0.125000  0.125000  0.000000     16.000000
  0.250000 -0.125000  0.000000     16.000000
  0.125000 -0.250000  0.000000     16.000000
  0.208333  0.125000  0.000000     16.000000
  0.333333 -0.208333  0.000000     16.000000
  0.125000 -0.333333  0.000000     16.000000
 -0.125000 -0.208333  0.000000     16.000000
  0.208333 -0.333333  0.000000     16.000000
  0.333333 -0.125000  0.000000     16.000000
  0.291667  0.125000  0.000000     16.000000
  0.416667 -0.291667  0.000000     16.000000
  0.125000 -0.416667  0.000000     16.000000
 -0.125000 -0.291667  0.000000     16.000000
  0.291667 -0.416667  0.000000     16.000000
  0.416667 -0.125000  0.000000     16.000000
  0.375000  0.125000  0.000000     16.000000
  0.500000 -0.375000  0.000000     16.000000
  0.125000  0.500000  0.000000     16.000000
 -0.125000 -0.375000  0.000000     16.000000
  0.375000  0.500000  0.000000     16.000000
  0.500000 -0.125000  0.000000     16.000000
  0.458333  0.125000  0.000000     16.000000
 -0.416667 -0.458333  0.000000     16.000000
  0.125000  0.416667  0.000000     16.000000
 -0.125000 -0.458333  0.000000     16.000000
  0.458333  0.416667  0.000000     16.000000
 -0.416667 -0.125000  0.000000     16.000000
 -0.458333  0.125000  0.000000     16.000000
 -0.333333  0.458333  0.000000     16.000000
  0.125000  0.333333  0.000000     16.000000
 -0.125000  0.458333  0.000000     16.000000
 -0.458333  0.333333  0.000000     16.000000
 -0.333333 -0.125000  0.000000     16.000000
 -0.375000  0.125000  0.000000     16.000000
 -0.250000  0.375000  0.000000     16.000000
  0.125000  0.250000  0.000000     16.000000
 -0.125000  0.375000  0.000000     16.000000
 -0.375000  0.250000  0.000000     16.000000
 -0.250000 -0.125000  0.000000     16.000000
 -0.291667  0.125000  0.000000     16.000000
 -0.166667  0.291667  0.000000     16.000000
  0.125000  0.166667  0.000000     16.000000
 -0.125000  0.291667  0.000000     16.000000
 -0.291667  0.166667  0.000000     16.000000
 -0.166667 -0.125000  0.000000     16.000000
 -0.208333  0.125000  0.000000     16.000000
 -0.083333  0.208333  0.000000     16.000000
  0.125000  0.083333  0.000000     16.000000
 -0.125000  0.208333  0.000000     16.000000
 -0.208333  0.083333  0.000000     16.000000
 -0.083333 -0.125000  0.000000     16.000000
 -0.125000  0.125000  0.000000     16.000000
  0.000000  0.125000  0.000000     16.000000
  0.125000  0.000000  0.000000     16.000000
  0.208333  0.208333  0.000000     16.000000
  0.416667 -0.208333  0.000000     16.000000
  0.208333 -0.416667  0.000000     16.000000
  0.291667  0.208333  0.000000     16.000000
  0.500000 -0.291667  0.000000     16.000000
  0.208333  0.500000  0.000000     16.000000
 -0.208333 -0.291667  0.000000     16.000000
  0.291667  0.500000  0.000000     16.000000
  0.500000 -0.208333  0.000000     16.000000
  0.375000  0.208333  0.000000     16.000000
 -0.416667 -0.375000  0.000000     16.000000
  0.208333  0.416667  0.000000     16.000000
 -0.208333 -0.375000  0.000000     16.000000
  0.375000  0.416667  0.000000     16.000000
 -0.416667 -0.208333  0.000000     16.000000
  0.458333  0.208333  0.000000     16.000000
 -0.333333 -0.458333  0.000000     16.000000
  0.208333  0.333333  0.000000     16.000000
 -0.208333 -0.458333  0.000000     16.000000
  0.458333  0.333333  0.000000     16.000000
 -0.333333 -0.208333  0.000000     16.000000
 -0.458333  0.208333  0.000000     16.000000
 -0.250000  0.458333  0.000000     16.000000
  0.208333  0.250000  0.000000     16.000000
 -0.208333  0.458333  0.000000     16.000000
 -0.458333  0.250000  0.000000     16.000000
 -0.250000 -0.208333  0.000000     16.000000
 -0.375000  0.208333  0.000000     16.000000
 -0.166667  0.375000  0.000000     16.000000
  0.208333  0.166667  0.000000     16.000000
 -0.208333  0.375000  0.000000     16.000000
 -0.375000  0.166667  0.000000     16.000000
 -0.166667 -0.208333  0.000000     16.000000
 -0.291667  0.208333  0.000000     16.000000
 -0.083333  0.291667  0.000000     16.000000
  0.208333  0.083333  0.000000     16.000000
 -0.208333  0.291667  0.000000     16.000000
 -0.291667  0.083333  0.000000     16.000000
 -0.083333 -0.208333  0.000000     16.000000
 -0.208333  0.208333  0.000000     16.000000
  0.000000  0.208333  0.000000     16.000000
  0.208333  0.000000  0.000000     16.000000
  0.291667  0.291667  0.000000     16.000000
 -0.416667 -0.291667  0.000000     16.000000
  0.291667  0.416667  0.000000     16.000000
  0.375000  0.291667  0.000000     16.000000
 -0.333333 -0.375000  0.000000     16.000000
  0.291667  0.333333  0.000000     16.000000
 -0.291667 -0.375000  0.000000     16.000000
  0.375000  0.333333  0.000000     16.000000
 -0.333333 -0.291667  0.000000     16.000000
  0.458333  0.291667  0.000000     16.000000
 -0.250000 -0.458333  0.000000     16.000000
  0.291667  0.250000  0.000000     16.000000
 -0.291667 -0.458333  0.000000     16.000000
  0.458333  0.250000  0.000000     16.000000
 -0.250000 -0.291667  0.000000     16.000000
 -0.458333  0.291667  0.000000     16.000000
 -0.166667  0.458333  0.000000     16.000000
  0.291667  0.166667  0.000000     16.000000
 -0.291667  0.458333  0.000000     16.000000
 -0.458333  0.166667  0.000000     16.000000
 -0.166667 -0.291667  0.000000     16.000000
 -0.375000  0.291667  0.000000     16.000000
 -0.083333  0.375000  0.000000     16.000000
  0.291667  0.083333  0.000000     16.000000
 -0.291667  0.375000  0.000000     16.000000
 -0.375000  0.083333  0.000000     16.000000
 -0.083333 -0.291667  0.000000     16.000000
 -0.291667  0.291667  0.000000     16.000000
  0.000000  0.291667  0.000000     16.000000
  0.291667  0.000000  0.000000     16.000000
  0.375000  0.375000  0.000000     16.000000
 -0.250000 -0.375000  0.000000     16.000000
  0.375000  0.250000  0.000000     16.000000
  0.458333  0.375000  0.000000     16.000000
 -0.166667 -0.458333  0.000000     16.000000
  0.375000  0.166667  0.000000     16.000000
 -0.375000 -0.458333  0.000000     16.000000
  0.458333  0.166667  0.000000     16.000000
 -0.166667 -0.375000  0.000000     16.000000
 -0.458333  0.375000  0.000000     16.000000
 -0.083333  0.458333  0.000000     16.000000
  0.375000  0.083333  0.000000     16.000000
 -0.375000  0.458333  0.000000     16.000000
 -0.458333  0.083333  0.000000     16.000000
 -0.083333 -0.375000  0.000000     16.000000
 -0.375000  0.375000  0.000000     16.000000
  0.000000  0.375000  0.000000     16.000000
  0.375000  0.000000  0.000000     16.000000
  0.458333  0.458333  0.000000     16.000000
 -0.083333 -0.458333  0.000000     16.000000
  0.458333  0.083333  0.000000     16.000000
 -0.458333  0.458333  0.000000     16.000000
  0.000000  0.458333  0.000000     16.000000
  0.458333  0.000000  0.000000     16.000000
 
 Following cartesian coordinates:
            Coordinates               Weight
  0.004362  0.007556  0.000000     16.000000
  0.008725  0.000000  0.000000     16.000000
  0.004362 -0.007556  0.000000     16.000000
  0.013087  0.012593  0.000000     16.000000
  0.017449 -0.005037  0.000000     16.000000
  0.004362 -0.017630  0.000000     16.000000
 -0.004362 -0.017630  0.000000     16.000000
  0.013087 -0.012593  0.000000     16.000000
  0.017449  0.005037  0.000000     16.000000
  0.021811  0.017630  0.000000     16.000000
  0.026174 -0.010074  0.000000     16.000000
  0.004362 -0.027704  0.000000     16.000000
 -0.004362 -0.027704  0.000000     16.000000
  0.021811 -0.017630  0.000000     16.000000
  0.026174  0.010074  0.000000     16.000000
  0.030536  0.022667  0.000000     16.000000
  0.034898 -0.015111  0.000000     16.000000
  0.004362 -0.037778  0.000000     16.000000
 -0.004362 -0.037778  0.000000     16.000000
  0.030536 -0.022667  0.000000     16.000000
  0.034898  0.015111  0.000000     16.000000
  0.039261  0.027704  0.000000     16.000000
  0.043623 -0.020149  0.000000     16.000000
  0.004362 -0.047853  0.000000     16.000000
 -0.004362 -0.047853  0.000000     16.000000
  0.039261 -0.027704  0.000000     16.000000
  0.043623  0.020149  0.000000     16.000000
  0.047985  0.032741  0.000000     16.000000
  0.052347 -0.025186  0.000000     16.000000
  0.004362  0.062964  0.000000     16.000000
 -0.004362 -0.057927  0.000000     16.000000
  0.047985  0.088150  0.000000     16.000000
  0.052347  0.025186  0.000000     16.000000
 -0.047985 -0.022667  0.000000     16.000000
 -0.043623  0.030223  0.000000     16.000000
  0.004362  0.052890  0.000000     16.000000
 -0.004362  0.052890  0.000000     16.000000
 -0.047985  0.022667  0.000000     16.000000
 -0.043623 -0.030223  0.000000     16.000000
 -0.039261 -0.017630  0.000000     16.000000
 -0.034898  0.025186  0.000000     16.000000
  0.004362  0.042816  0.000000     16.000000
 -0.004362  0.042816  0.000000     16.000000
 -0.039261  0.017630  0.000000     16.000000
 -0.034898 -0.025186  0.000000     16.000000
 -0.030536 -0.012593  0.000000     16.000000
 -0.026174  0.020149  0.000000     16.000000
  0.004362  0.032741  0.000000     16.000000
 -0.004362  0.032741  0.000000     16.000000
 -0.030536  0.012593  0.000000     16.000000
 -0.026174 -0.020149  0.000000     16.000000
 -0.021811 -0.007556  0.000000     16.000000
 -0.017449  0.015111  0.000000     16.000000
  0.004362  0.022667  0.000000     16.000000
 -0.004362  0.022667  0.000000     16.000000
 -0.021811  0.007556  0.000000     16.000000
 -0.017449 -0.015111  0.000000     16.000000
 -0.013087 -0.002519  0.000000     16.000000
 -0.008725  0.010074  0.000000     16.000000
  0.004362  0.012593  0.000000     16.000000
 -0.004362  0.012593  0.000000     16.000000
 -0.013087  0.002519  0.000000     16.000000
 -0.008725 -0.010074  0.000000     16.000000
 -0.004362  0.002519  0.000000     16.000000
  0.000000  0.005037  0.000000     16.000000
  0.004362  0.002519  0.000000     16.000000
  0.013087  0.022667  0.000000     16.000000
  0.026174  0.000000  0.000000     16.000000
  0.013087 -0.022667  0.000000     16.000000
  0.021811  0.027704  0.000000     16.000000
  0.034898 -0.005037  0.000000     16.000000
  0.013087 -0.032741  0.000000     16.000000
 -0.013087 -0.032741  0.000000     16.000000
  0.021811 -0.027704  0.000000     16.000000
  0.034898  0.005037  0.000000     16.000000
  0.030536  0.032741  0.000000     16.000000
  0.043623 -0.010074  0.000000     16.000000
  0.013087 -0.042816  0.000000     16.000000
 -0.013087 -0.042816  0.000000     16.000000
  0.030536 -0.032741  0.000000     16.000000
  0.043623  0.010074  0.000000     16.000000
  0.039261  0.037778  0.000000     16.000000
  0.052347 -0.015111  0.000000     16.000000
  0.013087  0.068001  0.000000     16.000000
 -0.013087 -0.052890  0.000000     16.000000
  0.039261  0.083113  0.000000     16.000000
  0.052347  0.015111  0.000000     16.000000
  0.047985  0.042816  0.000000     16.000000
 -0.043623 -0.080594  0.000000     16.000000
  0.013087  0.057927  0.000000     16.000000
 -0.013087 -0.062964  0.000000     16.000000
  0.047985  0.078075  0.000000     16.000000
 -0.043623 -0.040297  0.000000     16.000000
 -0.047985 -0.012593  0.000000     16.000000
 -0.034898  0.035260  0.000000     16.000000
  0.013087  0.047853  0.000000     16.000000
 -0.013087  0.047853  0.000000     16.000000
 -0.047985  0.012593  0.000000     16.000000
 -0.034898 -0.035260  0.000000     16.000000
 -0.039261 -0.007556  0.000000     16.000000
 -0.026174  0.030223  0.000000     16.000000
  0.013087  0.037778  0.000000     16.000000
 -0.013087  0.037778  0.000000     16.000000
 -0.039261  0.007556  0.000000     16.000000
 -0.026174 -0.030223  0.000000     16.000000
 -0.030536 -0.002519  0.000000     16.000000
 -0.017449  0.025186  0.000000     16.000000
  0.013087  0.027704  0.000000     16.000000
 -0.013087  0.027704  0.000000     16.000000
 -0.030536  0.002519  0.000000     16.000000
 -0.017449 -0.025186  0.000000     16.000000
 -0.021811  0.002519  0.000000     16.000000
 -0.008725  0.020149  0.000000     16.000000
  0.013087  0.017630  0.000000     16.000000
 -0.013087  0.017630  0.000000     16.000000
 -0.021811 -0.002519  0.000000     16.000000
 -0.008725 -0.020149  0.000000     16.000000
 -0.013087  0.007556  0.000000     16.000000
  0.000000  0.015111  0.000000     16.000000
  0.013087  0.007556  0.000000     16.000000
  0.021811  0.037778  0.000000     16.000000
  0.043623  0.000000  0.000000     16.000000
  0.021811 -0.037778  0.000000     16.000000
  0.030536  0.042816  0.000000     16.000000
  0.052347 -0.005037  0.000000     16.000000
  0.021811  0.073038  0.000000     16.000000
 -0.021811 -0.047853  0.000000     16.000000
  0.030536  0.078075  0.000000     16.000000
  0.052347  0.005037  0.000000     16.000000
  0.039261  0.047853  0.000000     16.000000
 -0.043623 -0.070520  0.000000     16.000000
  0.021811  0.062964  0.000000     16.000000
 -0.021811 -0.057927  0.000000     16.000000
  0.039261  0.073038  0.000000     16.000000
 -0.043623 -0.050371  0.000000     16.000000
  0.047985  0.052890  0.000000     16.000000
 -0.034898 -0.075557  0.000000     16.000000
  0.021811  0.052890  0.000000     16.000000
 -0.021811 -0.068001  0.000000     16.000000
  0.047985  0.068001  0.000000     16.000000
 -0.034898 -0.045334  0.000000     16.000000
 -0.047985 -0.002519  0.000000     16.000000
 -0.026174  0.040297  0.000000     16.000000
  0.021811  0.042816  0.000000     16.000000
 -0.021811  0.042816  0.000000     16.000000
 -0.047985  0.002519  0.000000     16.000000
 -0.026174 -0.040297  0.000000     16.000000
 -0.039261  0.002519  0.000000     16.000000
 -0.017449  0.035260  0.000000     16.000000
  0.021811  0.032741  0.000000     16.000000
 -0.021811  0.032741  0.000000     16.000000
 -0.039261 -0.002519  0.000000     16.000000
 -0.017449 -0.035260  0.000000     16.000000
 -0.030536  0.007556  0.000000     16.000000
 -0.008725  0.030223  0.000000     16.000000
  0.021811  0.022667  0.000000     16.000000
 -0.021811  0.022667  0.000000     16.000000
 -0.030536 -0.007556  0.000000     16.000000
 -0.008725 -0.030223  0.000000     16.000000
 -0.021811  0.012593  0.000000     16.000000
  0.000000  0.025186  0.000000     16.000000
  0.021811  0.012593  0.000000     16.000000
  0.030536  0.052890  0.000000     16.000000
 -0.043623 -0.060446  0.000000     16.000000
  0.030536  0.068001  0.000000     16.000000
  0.039261  0.057927  0.000000     16.000000
 -0.034898 -0.065483  0.000000     16.000000
  0.030536  0.057927  0.000000     16.000000
 -0.030536 -0.062964  0.000000     16.000000
  0.039261  0.062964  0.000000     16.000000
 -0.034898 -0.055408  0.000000     16.000000
  0.047985  0.062964  0.000000     16.000000
 -0.026174 -0.070520  0.000000     16.000000
  0.030536  0.047853  0.000000     16.000000
 -0.030536 -0.073038  0.000000     16.000000
  0.047985  0.057927  0.000000     16.000000
 -0.026174 -0.050371  0.000000     16.000000
 -0.047985  0.007556  0.000000     16.000000
 -0.017449  0.045334  0.000000     16.000000
  0.030536  0.037778  0.000000     16.000000
 -0.030536  0.037778  0.000000     16.000000
 -0.047985 -0.007556  0.000000     16.000000
 -0.017449 -0.045334  0.000000     16.000000
 -0.039261  0.012593  0.000000     16.000000
 -0.008725  0.040297  0.000000     16.000000
  0.030536  0.027704  0.000000     16.000000
 -0.030536  0.027704  0.000000     16.000000
 -0.039261 -0.012593  0.000000     16.000000
 -0.008725 -0.040297  0.000000     16.000000
 -0.030536  0.017630  0.000000     16.000000
  0.000000  0.035260  0.000000     16.000000
  0.030536  0.017630  0.000000     16.000000
  0.039261  0.068001  0.000000     16.000000
 -0.026174 -0.060446  0.000000     16.000000
  0.039261  0.052890  0.000000     16.000000
  0.047985  0.073038  0.000000     16.000000
 -0.017449 -0.065483  0.000000     16.000000
  0.039261  0.042816  0.000000     16.000000
 -0.039261 -0.078075  0.000000     16.000000
  0.047985  0.047853  0.000000     16.000000
 -0.017449 -0.055408  0.000000     16.000000
 -0.047985  0.017630  0.000000     16.000000
 -0.008725  0.050371  0.000000     16.000000
  0.039261  0.032741  0.000000     16.000000
 -0.039261  0.032741  0.000000     16.000000
 -0.047985 -0.017630  0.000000     16.000000
 -0.008725 -0.050371  0.000000     16.000000
 -0.039261  0.022667  0.000000     16.000000
  0.000000  0.045334  0.000000     16.000000
  0.039261  0.022667  0.000000     16.000000
  0.047985  0.083113  0.000000     16.000000
 -0.008725 -0.060446  0.000000     16.000000
  0.047985  0.037778  0.000000     16.000000
 -0.047985  0.027704  0.000000     16.000000
  0.000000  0.055408  0.000000     16.000000
  0.047985  0.027704  0.000000     16.000000
 


--------------------------------------------------------------------------------------------------------




 Dimension of arrays:
   k-points           NKPTS =    216   k-points in BZ     NKDIM =    216   number of bands    NBANDS=    140
   number of dos      NEDOS =    301   number of ions     NIONS =     27
   non local maximal  LDIM  =      6   non local SUM 2l+1 LMDIM =     18
   total plane-waves  NPLWV = 548800
   max r-space proj   IRMAX =      1   max aug-charges    IRDMAX=  20448
   dimension x,y,z NGX =    70 NGY =   70 NGZ =  112
   dimension x,y,z NGXF=   140 NGYF=  140 NGZF=  224
   support grid    NGXF=   140 NGYF=  140 NGZF=  224
   ions per type =               9  18
   NGX,Y,Z   is equivalent  to a cutoff of  12.18, 12.18, 12.41 a.u.
   NGXF,Y,Z  is equivalent  to a cutoff of  24.37, 24.37, 24.83 a.u.

 SYSTEM =  unknown system                          
 POSCAR =  generated by phonopy                    

 Startparameter for this run:
   NWRITE =      2    write-flag & timer
   PREC   = accura    normal or accurate (medium, high low for compatibility)
   ISTART =      0    job   : 0-new  1-cont  2-samecut
   ICHARG =      2    charge: 1-file 2-atom 10-const
   ISPIN  =      1    spin polarized calculation?
   LNONCOLLINEAR =      F non collinear calculations
   LSORBIT =      F    spin-orbit coupling
   INIWAV =      1    electr: 0-lowe 1-rand  2-diag
   LASPH  =      F    aspherical Exc in radial PAW
   METAGGA=      F    non-selfconsistent MetaGGA calc.

 Electronic Relaxation 1
   ENCUT  =  500.0 eV  36.75 Ry    6.06 a.u.  17.41 17.41 27.35*2*pi/ulx,y,z
   ENINI  =  500.0     initial cutoff
   ENAUG  =  446.0 eV  augmentation charge cutoff
   NELM   =     60;   NELMIN=  2; NELMDL= -5     # of ELM steps 
   EDIFF  = 0.1E-07   stopping-criterion for ELM
   LREAL  =      F    real-space projection
   NLSPLINE    = F    spline interpolate recip. space projectors
   LCOMPAT=      F    compatible to vasp.4.4
   GGA_COMPAT  = T    GGA compatible to vasp.4.4-vasp.4.6
   LMAXPAW     = -100 max onsite density
   LMAXMIX     =    2 max onsite mixed and CHGCAR
   VOSKOWN=      0    Vosko Wilk Nusair interpolation
   ROPT   =    0.00000   0.00000
 Ionic relaxation
   EDIFFG = 0.1E-06   stopping-criterion for IOM
   NSW    =      0    number of steps for IOM
   NBLOCK =      1;   KBLOCK =      1    inner block; outer block 
   IBRION =     -1    ionic relax: 0-MD 1-quasi-New 2-CG
   NFREE  =      0    steps in history (QN), initial steepest desc. (CG)
   ISIF   =      2    stress and relaxation
   IWAVPR =     10    prediction:  0-non 1-charg 2-wave 3-comb
   ISYM   =      2    0-nonsym 1-usesym 2-fastsym
   LCORR  =      T    Harris-Foulkes like correction to forces

   POTIM  = 0.5000    time-step for ionic-motion
   TEIN   =    0.0    initial temperature
   TEBEG  =    0.0;   TEEND  =   0.0 temperature during run
   SMASS  =  -3.00    Nose mass-parameter (am)
   estimated Nose-frequenzy (Omega)   =  0.10E-29 period in steps =****** mass=  -0.208E-26a.u.
   SCALEE = 1.0000    scale energy and forces
   NPACO  =    256;   APACO  = 16.0  distance and # of slots for P.C.
   PSTRESS=    0.0 pullay stress

  Mass of Ions in am
   POMASS =  95.94 32.07
  Ionic Valenz
   ZVAL   =  14.00  6.00
  Atomic Wigner-Seitz radii
   RWIGS  =  -1.00 -1.00
  virtual crystal weights 
   VCA    =   1.00  1.00
   NELECT =     234.0000    total number of electrons
   NUPDOWN=      -1.0000    fix difference up-down

 DOS related values:
   EMIN   =  10.00;   EMAX   =-10.00  energy-range for DOS
   EFERMI =   0.00
   ISMEAR =     0;   SIGMA  =   0.10  broadening in eV -4-tet -1-fermi 0-gaus

 Electronic relaxation 2 (details)
   IALGO  =     38    algorithm
   LDIAG  =      T    sub-space diagonalisation (order eigenvalues)
   LSUBROT=      F    optimize rotation matrix (better conditioning)
   TURBO    =      0    0=normal 1=particle mesh
   IRESTART =      0    0=no restart 2=restart with 2 vectors
   NREBOOT  =      0    no. of reboots
   NMIN     =      0    reboot dimension
   EREF     =   0.00    reference energy to select bands
   IMIX   =      4    mixing-type and parameters
     AMIX     =   0.40;   BMIX     =  1.00
     AMIX_MAG =   1.60;   BMIX_MAG =  1.00
     AMIN     =   0.10
     WC   =   100.;   INIMIX=   1;  MIXPRE=   1;  MAXMIX= -45

 Intra band minimization:
   WEIMIN = 0.0000     energy-eigenvalue tresh-hold
   EBREAK =  0.18E-10  absolut break condition
   DEPER  =   0.30     relativ break condition  

   TIME   =   0.40     timestep for ELM

  volume/ion in A,a.u.               =      43.89       296.21
  Fermi-wavevector in a.u.,A,eV,Ry     =   0.953285  1.801447 12.364318  0.908752
  Thomas-Fermi vector in A             =   2.081926
 
 Write flags
   LWAVE        =      F    write WAVECAR
   LDOWNSAMPLE  =      F    k-point downsampling of WAVECAR
   LCHARG       =      F    write CHGCAR
   LVTOT        =      F    write LOCPOT, total local potential
   LVHAR        =      F    write LOCPOT, Hartree potential only
   LELF         =      F    write electronic localiz. function (ELF)
   LORBIT       =      0    0 simple, 1 ext, 2 COOP (PROOUT), +10 PAW based schemes


 Dipole corrections
   LMONO  =      F    monopole corrections only (constant potential shift)
   LDIPOL =      F    correct potential (dipole corrections)
   IDIPOL =      0    1-x, 2-y, 3-z, 4-all directions 
   EPSILON=  1.0000000 bulk dielectric constant

 Exchange correlation treatment:
   GGA     =    --    GGA type
   LEXCH   =     8    internal setting for exchange type
   VOSKOWN=      0    Vosko Wilk Nusair interpolation
   LHFCALC =     F    Hartree Fock is set to
   LHFONE  =     F    Hartree Fock one center treatment
   AEXX    =    0.0000 exact exchange contribution

 Linear response parameters
   LEPSILON=     F    determine dielectric tensor
   LRPA    =     F    only Hartree local field effects (RPA)
   LNABLA  =     F    use nabla operator in PAW spheres
   LVEL    =     F    velocity operator in full k-point grid
   LINTERFAST=   F  fast interpolation
   KINTER  =     0    interpolate to denser k-point grid
   CSHIFT  =0.1000    complex shift for real part using Kramers Kronig
   OMEGAMAX=  -1.0    maximum frequency
   DEG_THRESHOLD= 0.2000000E-02 threshold for treating states as degnerate
   RTIME   =   -0.100 relaxation time in fs
  (WPLASMAI=    0.000 imaginary part of plasma frequency in eV, 0.658/RTIME)
   DFIELD  = 0.0000000 0.0000000 0.0000000 field for delta impulse in time
 
 Orbital magnetization related:
   ORBITALMAG=     F  switch on orbital magnetization
   LCHIMAG   =     F  perturbation theory with respect to B field
   DQ        =  0.001000  dq finite difference perturbation B field
   LLRAUG    =     F  two centre corrections for induced B field



--------------------------------------------------------------------------------------------------------


 Static calculation
 charge density and potential will be updated during run
 non-spin polarized calculation
 Variant of blocked Davidson
 Davidson routine will perform the subspace rotation
 perform sub-space diagonalisation
    after iterative eigenvector-optimisation
 modified Broyden-mixing scheme, WC =      100.0
 initial mixing is a Kerker type mixing with AMIX =  0.4000 and BMIX =      1.0000
 Hartree-type preconditioning will be used
 using additional bands           23
 reciprocal scheme for non local part
 use partial core corrections
 calculate Harris-corrections to forces 
   (improved forces if not selfconsistent)
 use gradient corrections 
 use of overlap-Matrix (Vanderbilt PP)
 Gauss-broadening in eV      SIGMA  =   0.10


--------------------------------------------------------------------------------------------------------


  energy-cutoff  :      500.00
  volume of cell :     1185.15
      direct lattice vectors                 reciprocal lattice vectors
     9.551581406  0.000000000  0.000000000     0.104694705  0.060445516  0.000000000
    -4.775790703  8.271912144  0.000000000     0.000000000  0.120891033  0.000000000
     0.000000000  0.000000000 15.000000000     0.000000000  0.000000000  0.066666667

  length of vectors
     9.551581406  9.551581406 15.000000000     0.120891033  0.120891033  0.066666667


 
 k-points in units of 2pi/SCALE and weight: K-Spacing Value to Generate K-Mesh: 0.04
   0.00436228  0.00755569  0.00000000       0.005
   0.00872456  0.00000000  0.00000000       0.005
   0.00436228 -0.00755569  0.00000000       0.005
   0.01308684  0.01259282  0.00000000       0.005
   0.01744912 -0.00503713  0.00000000       0.005
   0.00436228 -0.01762994  0.00000000       0.005
  -0.00436228 -0.01762994  0.00000000       0.005
   0.01308684 -0.01259282  0.00000000       0.005
   0.01744912  0.00503713  0.00000000       0.005
   0.02181140  0.01762994  0.00000000       0.005
   0.02617368 -0.01007425  0.00000000       0.005
   0.00436228 -0.02770419  0.00000000       0.005
  -0.00436228 -0.02770419  0.00000000       0.005
   0.02181140 -0.01762994  0.00000000       0.005
   0.02617368  0.01007425  0.00000000       0.005
   0.03053596  0.02266707  0.00000000       0.005
   0.03489824 -0.01511138  0.00000000       0.005
   0.00436228 -0.03777845  0.00000000       0.005
  -0.00436228 -0.03777845  0.00000000       0.005
   0.03053596 -0.02266707  0.00000000       0.005
   0.03489824  0.01511138  0.00000000       0.005
   0.03926051  0.02770419  0.00000000       0.005
   0.04362279 -0.02014851  0.00000000       0.005
   0.00436228 -0.04785270  0.00000000       0.005
  -0.00436228 -0.04785270  0.00000000       0.005
   0.03926051 -0.02770419  0.00000000       0.005
   0.04362279  0.02014851  0.00000000       0.005
   0.04798507  0.03274132  0.00000000       0.005
   0.05234735 -0.02518563  0.00000000       0.005
   0.00436228  0.06296408  0.00000000       0.005
  -0.00436228 -0.05792695  0.00000000       0.005
   0.04798507  0.08814971  0.00000000       0.005
   0.05234735  0.02518563  0.00000000       0.005
  -0.04798507 -0.02266707  0.00000000       0.005
  -0.04362279  0.03022276  0.00000000       0.005
   0.00436228  0.05288983  0.00000000       0.005
  -0.00436228  0.05288983  0.00000000       0.005
  -0.04798507  0.02266707  0.00000000       0.005
  -0.04362279 -0.03022276  0.00000000       0.005
  -0.03926051 -0.01762994  0.00000000       0.005
  -0.03489824  0.02518563  0.00000000       0.005
   0.00436228  0.04281557  0.00000000       0.005
  -0.00436228  0.04281557  0.00000000       0.005
  -0.03926051  0.01762994  0.00000000       0.005
  -0.03489824 -0.02518563  0.00000000       0.005
  -0.03053596 -0.01259282  0.00000000       0.005
  -0.02617368  0.02014851  0.00000000       0.005
   0.00436228  0.03274132  0.00000000       0.005
  -0.00436228  0.03274132  0.00000000       0.005
  -0.03053596  0.01259282  0.00000000       0.005
  -0.02617368 -0.02014851  0.00000000       0.005
  -0.02181140 -0.00755569  0.00000000       0.005
  -0.01744912  0.01511138  0.00000000       0.005
   0.00436228  0.02266707  0.00000000       0.005
  -0.00436228  0.02266707  0.00000000       0.005
  -0.02181140  0.00755569  0.00000000       0.005
  -0.01744912 -0.01511138  0.00000000       0.005
  -0.01308684 -0.00251856  0.00000000       0.005
  -0.00872456  0.01007425  0.00000000       0.005
   0.00436228  0.01259282  0.00000000       0.005
  -0.00436228  0.01259282  0.00000000       0.005
  -0.01308684  0.00251856  0.00000000       0.005
  -0.00872456 -0.01007425  0.00000000       0.005
  -0.00436228  0.00251856  0.00000000       0.005
   0.00000000  0.00503713  0.00000000       0.005
   0.00436228  0.00251856  0.00000000       0.005
   0.01308684  0.02266707  0.00000000       0.005
   0.02617368  0.00000000  0.00000000       0.005
   0.01308684 -0.02266707  0.00000000       0.005
   0.02181140  0.02770419  0.00000000       0.005
   0.03489824 -0.00503713  0.00000000       0.005
   0.01308684 -0.03274132  0.00000000       0.005
  -0.01308684 -0.03274132  0.00000000       0.005
   0.02181140 -0.02770419  0.00000000       0.005
   0.03489824  0.00503713  0.00000000       0.005
   0.03053596  0.03274132  0.00000000       0.005
   0.04362279 -0.01007425  0.00000000       0.005
   0.01308684 -0.04281557  0.00000000       0.005
  -0.01308684 -0.04281557  0.00000000       0.005
   0.03053596 -0.03274132  0.00000000       0.005
   0.04362279  0.01007425  0.00000000       0.005
   0.03926051  0.03777845  0.00000000       0.005
   0.05234735 -0.01511138  0.00000000       0.005
   0.01308684  0.06800121  0.00000000       0.005
  -0.01308684 -0.05288983  0.00000000       0.005
   0.03926051  0.08311258  0.00000000       0.005
   0.05234735  0.01511138  0.00000000       0.005
   0.04798507  0.04281557  0.00000000       0.005
  -0.04362279 -0.08059402  0.00000000       0.005
   0.01308684  0.05792695  0.00000000       0.005
  -0.01308684 -0.06296408  0.00000000       0.005
   0.04798507  0.07807546  0.00000000       0.005
  -0.04362279 -0.04029701  0.00000000       0.005
  -0.04798507 -0.01259282  0.00000000       0.005
  -0.03489824  0.03525988  0.00000000       0.005
   0.01308684  0.04785270  0.00000000       0.005
  -0.01308684  0.04785270  0.00000000       0.005
  -0.04798507  0.01259282  0.00000000       0.005
  -0.03489824 -0.03525988  0.00000000       0.005
  -0.03926051 -0.00755569  0.00000000       0.005
  -0.02617368  0.03022276  0.00000000       0.005
   0.01308684  0.03777845  0.00000000       0.005
  -0.01308684  0.03777845  0.00000000       0.005
  -0.03926051  0.00755569  0.00000000       0.005
  -0.02617368 -0.03022276  0.00000000       0.005
  -0.03053596 -0.00251856  0.00000000       0.005
  -0.01744912  0.02518563  0.00000000       0.005
   0.01308684  0.02770419  0.00000000       0.005
  -0.01308684  0.02770419  0.00000000       0.005
  -0.03053596  0.00251856  0.00000000       0.005
  -0.01744912 -0.02518563  0.00000000       0.005
  -0.02181140  0.00251856  0.00000000       0.005
  -0.00872456  0.02014851  0.00000000       0.005
   0.01308684  0.01762994  0.00000000       0.005
  -0.01308684  0.01762994  0.00000000       0.005
  -0.02181140 -0.00251856  0.00000000       0.005
  -0.00872456 -0.02014851  0.00000000       0.005
  -0.01308684  0.00755569  0.00000000       0.005
   0.00000000  0.01511138  0.00000000       0.005
   0.01308684  0.00755569  0.00000000       0.005
   0.02181140  0.03777845  0.00000000       0.005
   0.04362279  0.00000000  0.00000000       0.005
   0.02181140 -0.03777845  0.00000000       0.005
   0.03053596  0.04281557  0.00000000       0.005
   0.05234735 -0.00503713  0.00000000       0.005
   0.02181140  0.07303833  0.00000000       0.005
  -0.02181140 -0.04785270  0.00000000       0.005
   0.03053596  0.07807546  0.00000000       0.005
   0.05234735  0.00503713  0.00000000       0.005
   0.03926051  0.04785270  0.00000000       0.005
  -0.04362279 -0.07051977  0.00000000       0.005
   0.02181140  0.06296408  0.00000000       0.005
  -0.02181140 -0.05792695  0.00000000       0.005
   0.03926051  0.07303833  0.00000000       0.005
  -0.04362279 -0.05037126  0.00000000       0.005
   0.04798507  0.05288983  0.00000000       0.005
  -0.03489824 -0.07555690  0.00000000       0.005
   0.02181140  0.05288983  0.00000000       0.005
  -0.02181140 -0.06800121  0.00000000       0.005
   0.04798507  0.06800121  0.00000000       0.005
  -0.03489824 -0.04533414  0.00000000       0.005
  -0.04798507 -0.00251856  0.00000000       0.005
  -0.02617368  0.04029701  0.00000000       0.005
   0.02181140  0.04281557  0.00000000       0.005
  -0.02181140  0.04281557  0.00000000       0.005
  -0.04798507  0.00251856  0.00000000       0.005
  -0.02617368 -0.04029701  0.00000000       0.005
  -0.03926051  0.00251856  0.00000000       0.005
  -0.01744912  0.03525988  0.00000000       0.005
   0.02181140  0.03274132  0.00000000       0.005
  -0.02181140  0.03274132  0.00000000       0.005
  -0.03926051 -0.00251856  0.00000000       0.005
  -0.01744912 -0.03525988  0.00000000       0.005
  -0.03053596  0.00755569  0.00000000       0.005
  -0.00872456  0.03022276  0.00000000       0.005
   0.02181140  0.02266707  0.00000000       0.005
  -0.02181140  0.02266707  0.00000000       0.005
  -0.03053596 -0.00755569  0.00000000       0.005
  -0.00872456 -0.03022276  0.00000000       0.005
  -0.02181140  0.01259282  0.00000000       0.005
   0.00000000  0.02518563  0.00000000       0.005
   0.02181140  0.01259282  0.00000000       0.005
   0.03053596  0.05288983  0.00000000       0.005
  -0.04362279 -0.06044552  0.00000000       0.005
   0.03053596  0.06800121  0.00000000       0.005
   0.03926051  0.05792695  0.00000000       0.005
  -0.03489824 -0.06548264  0.00000000       0.005
   0.03053596  0.05792695  0.00000000       0.005
  -0.03053596 -0.06296408  0.00000000       0.005
   0.03926051  0.06296408  0.00000000       0.005
  -0.03489824 -0.05540839  0.00000000       0.005
   0.04798507  0.06296408  0.00000000       0.005
  -0.02617368 -0.07051977  0.00000000       0.005
   0.03053596  0.04785270  0.00000000       0.005
  -0.03053596 -0.07303833  0.00000000       0.005
   0.04798507  0.05792695  0.00000000       0.005
  -0.02617368 -0.05037126  0.00000000       0.005
  -0.04798507  0.00755569  0.00000000       0.005
  -0.01744912  0.04533414  0.00000000       0.005
   0.03053596  0.03777845  0.00000000       0.005
  -0.03053596  0.03777845  0.00000000       0.005
  -0.04798507 -0.00755569  0.00000000       0.005
  -0.01744912 -0.04533414  0.00000000       0.005
  -0.03926051  0.01259282  0.00000000       0.005
  -0.00872456  0.04029701  0.00000000       0.005
   0.03053596  0.02770419  0.00000000       0.005
  -0.03053596  0.02770419  0.00000000       0.005
  -0.03926051 -0.01259282  0.00000000       0.005
  -0.00872456 -0.04029701  0.00000000       0.005
  -0.03053596  0.01762994  0.00000000       0.005
   0.00000000  0.03525988  0.00000000       0.005
   0.03053596  0.01762994  0.00000000       0.005
   0.03926051  0.06800121  0.00000000       0.005
  -0.02617368 -0.06044552  0.00000000       0.005
   0.03926051  0.05288983  0.00000000       0.005
   0.04798507  0.07303833  0.00000000       0.005
  -0.01744912 -0.06548264  0.00000000       0.005
   0.03926051  0.04281557  0.00000000       0.005
  -0.03926051 -0.07807546  0.00000000       0.005
   0.04798507  0.04785270  0.00000000       0.005
  -0.01744912 -0.05540839  0.00000000       0.005
  -0.04798507  0.01762994  0.00000000       0.005
  -0.00872456  0.05037126  0.00000000       0.005
   0.03926051  0.03274132  0.00000000       0.005
  -0.03926051  0.03274132  0.00000000       0.005
  -0.04798507 -0.01762994  0.00000000       0.005
  -0.00872456 -0.05037126  0.00000000       0.005
  -0.03926051  0.02266707  0.00000000       0.005
   0.00000000  0.04533414  0.00000000       0.005
   0.03926051  0.02266707  0.00000000       0.005
   0.04798507  0.08311258  0.00000000       0.005
  -0.00872456 -0.06044552  0.00000000       0.005
   0.04798507  0.03777845  0.00000000       0.005
  -0.04798507  0.02770419  0.00000000       0.005
   0.00000000  0.05540839  0.00000000       0.005
   0.04798507  0.02770419  0.00000000       0.005
 
 k-points in reciprocal lattice and weights: K-Spacing Value to Generate K-Mesh: 0.04
   0.04166667  0.04166667  0.00000000       0.005
   0.08333333 -0.04166667  0.00000000       0.005
   0.04166667 -0.08333333  0.00000000       0.005
   0.12500000  0.04166667  0.00000000       0.005
   0.16666667 -0.12500000  0.00000000       0.005
   0.04166667 -0.16666667  0.00000000       0.005
  -0.04166667 -0.12500000  0.00000000       0.005
   0.12500000 -0.16666667  0.00000000       0.005
   0.16666667 -0.04166667  0.00000000       0.005
   0.20833333  0.04166667  0.00000000       0.005
   0.25000000 -0.20833333  0.00000000       0.005
   0.04166667 -0.25000000  0.00000000       0.005
  -0.04166667 -0.20833333  0.00000000       0.005
   0.20833333 -0.25000000  0.00000000       0.005
   0.25000000 -0.04166667  0.00000000       0.005
   0.29166667  0.04166667  0.00000000       0.005
   0.33333333 -0.29166667  0.00000000       0.005
   0.04166667 -0.33333333  0.00000000       0.005
  -0.04166667 -0.29166667  0.00000000       0.005
   0.29166667 -0.33333333  0.00000000       0.005
   0.33333333 -0.04166667  0.00000000       0.005
   0.37500000  0.04166667  0.00000000       0.005
   0.41666667 -0.37500000  0.00000000       0.005
   0.04166667 -0.41666667  0.00000000       0.005
  -0.04166667 -0.37500000  0.00000000       0.005
   0.37500000 -0.41666667  0.00000000       0.005
   0.41666667 -0.04166667  0.00000000       0.005
   0.45833333  0.04166667  0.00000000       0.005
   0.50000000 -0.45833333  0.00000000       0.005
   0.04166667  0.50000000  0.00000000       0.005
  -0.04166667 -0.45833333  0.00000000       0.005
   0.45833333  0.50000000  0.00000000       0.005
   0.50000000 -0.04166667  0.00000000       0.005
  -0.45833333  0.04166667  0.00000000       0.005
  -0.41666667  0.45833333  0.00000000       0.005
   0.04166667  0.41666667  0.00000000       0.005
  -0.04166667  0.45833333  0.00000000       0.005
  -0.45833333  0.41666667  0.00000000       0.005
  -0.41666667 -0.04166667  0.00000000       0.005
  -0.37500000  0.04166667  0.00000000       0.005
  -0.33333333  0.37500000  0.00000000       0.005
   0.04166667  0.33333333  0.00000000       0.005
  -0.04166667  0.37500000  0.00000000       0.005
  -0.37500000  0.33333333  0.00000000       0.005
  -0.33333333 -0.04166667  0.00000000       0.005
  -0.29166667  0.04166667  0.00000000       0.005
  -0.25000000  0.29166667  0.00000000       0.005
   0.04166667  0.25000000  0.00000000       0.005
  -0.04166667  0.29166667  0.00000000       0.005
  -0.29166667  0.25000000  0.00000000       0.005
  -0.25000000 -0.04166667  0.00000000       0.005
  -0.20833333  0.04166667  0.00000000       0.005
  -0.16666667  0.20833333  0.00000000       0.005
   0.04166667  0.16666667  0.00000000       0.005
  -0.04166667  0.20833333  0.00000000       0.005
  -0.20833333  0.16666667  0.00000000       0.005
  -0.16666667 -0.04166667  0.00000000       0.005
  -0.12500000  0.04166667  0.00000000       0.005
  -0.08333333  0.12500000  0.00000000       0.005
   0.04166667  0.08333333  0.00000000       0.005
  -0.04166667  0.12500000  0.00000000       0.005
  -0.12500000  0.08333333  0.00000000       0.005
  -0.08333333 -0.04166667  0.00000000       0.005
  -0.04166667  0.04166667  0.00000000       0.005
   0.00000000  0.04166667  0.00000000       0.005
   0.04166667  0.00000000  0.00000000       0.005
   0.12500000  0.12500000  0.00000000       0.005
   0.25000000 -0.12500000  0.00000000       0.005
   0.12500000 -0.25000000  0.00000000       0.005
   0.20833333  0.12500000  0.00000000       0.005
   0.33333333 -0.20833333  0.00000000       0.005
   0.12500000 -0.33333333  0.00000000       0.005
  -0.12500000 -0.20833333  0.00000000       0.005
   0.20833333 -0.33333333  0.00000000       0.005
   0.33333333 -0.12500000  0.00000000       0.005
   0.29166667  0.12500000  0.00000000       0.005
   0.41666667 -0.29166667  0.00000000       0.005
   0.12500000 -0.41666667  0.00000000       0.005
  -0.12500000 -0.29166667  0.00000000       0.005
   0.29166667 -0.41666667  0.00000000       0.005
   0.41666667 -0.12500000  0.00000000       0.005
   0.37500000  0.12500000  0.00000000       0.005
   0.50000000 -0.37500000  0.00000000       0.005
   0.12500000  0.50000000  0.00000000       0.005
  -0.12500000 -0.37500000  0.00000000       0.005
   0.37500000  0.50000000  0.00000000       0.005
   0.50000000 -0.12500000  0.00000000       0.005
   0.45833333  0.12500000  0.00000000       0.005
  -0.41666667 -0.45833333  0.00000000       0.005
   0.12500000  0.41666667  0.00000000       0.005
  -0.12500000 -0.45833333  0.00000000       0.005
   0.45833333  0.41666667  0.00000000       0.005
  -0.41666667 -0.12500000  0.00000000       0.005
  -0.45833333  0.12500000  0.00000000       0.005
  -0.33333333  0.45833333  0.00000000       0.005
   0.12500000  0.33333333  0.00000000       0.005
  -0.12500000  0.45833333  0.00000000       0.005
  -0.45833333  0.33333333  0.00000000       0.005
  -0.33333333 -0.12500000  0.00000000       0.005
  -0.37500000  0.12500000  0.00000000       0.005
  -0.25000000  0.37500000  0.00000000       0.005
   0.12500000  0.25000000  0.00000000       0.005
  -0.12500000  0.37500000  0.00000000       0.005
  -0.37500000  0.25000000  0.00000000       0.005
  -0.25000000 -0.12500000  0.00000000       0.005
  -0.29166667  0.12500000  0.00000000       0.005
  -0.16666667  0.29166667  0.00000000       0.005
   0.12500000  0.16666667  0.00000000       0.005
  -0.12500000  0.29166667  0.00000000       0.005
  -0.29166667  0.16666667  0.00000000       0.005
  -0.16666667 -0.12500000  0.00000000       0.005
  -0.20833333  0.12500000  0.00000000       0.005
  -0.08333333  0.20833333  0.00000000       0.005
   0.12500000  0.08333333  0.00000000       0.005
  -0.12500000  0.20833333  0.00000000       0.005
  -0.20833333  0.08333333  0.00000000       0.005
  -0.08333333 -0.12500000  0.00000000       0.005
  -0.12500000  0.12500000  0.00000000       0.005
   0.00000000  0.12500000  0.00000000       0.005
   0.12500000  0.00000000  0.00000000       0.005
   0.20833333  0.20833333  0.00000000       0.005
   0.41666667 -0.20833333  0.00000000       0.005
   0.20833333 -0.41666667  0.00000000       0.005
   0.29166667  0.20833333  0.00000000       0.005
   0.50000000 -0.29166667  0.00000000       0.005
   0.20833333  0.50000000  0.00000000       0.005
  -0.20833333 -0.29166667  0.00000000       0.005
   0.29166667  0.50000000  0.00000000       0.005
   0.50000000 -0.20833333  0.00000000       0.005
   0.37500000  0.20833333  0.00000000       0.005
  -0.41666667 -0.37500000  0.00000000       0.005
   0.20833333  0.41666667  0.00000000       0.005
  -0.20833333 -0.37500000  0.00000000       0.005
   0.37500000  0.41666667  0.00000000       0.005
  -0.41666667 -0.20833333  0.00000000       0.005
   0.45833333  0.20833333  0.00000000       0.005
  -0.33333333 -0.45833333  0.00000000       0.005
   0.20833333  0.33333333  0.00000000       0.005
  -0.20833333 -0.45833333  0.00000000       0.005
   0.45833333  0.33333333  0.00000000       0.005
  -0.33333333 -0.20833333  0.00000000       0.005
  -0.45833333  0.20833333  0.00000000       0.005
  -0.25000000  0.45833333  0.00000000       0.005
   0.20833333  0.25000000  0.00000000       0.005
  -0.20833333  0.45833333  0.00000000       0.005
  -0.45833333  0.25000000  0.00000000       0.005
  -0.25000000 -0.20833333  0.00000000       0.005
  -0.37500000  0.20833333  0.00000000       0.005
  -0.16666667  0.37500000  0.00000000       0.005
   0.20833333  0.16666667  0.00000000       0.005
  -0.20833333  0.37500000  0.00000000       0.005
  -0.37500000  0.16666667  0.00000000       0.005
  -0.16666667 -0.20833333  0.00000000       0.005
  -0.29166667  0.20833333  0.00000000       0.005
  -0.08333333  0.29166667  0.00000000       0.005
   0.20833333  0.08333333  0.00000000       0.005
  -0.20833333  0.29166667  0.00000000       0.005
  -0.29166667  0.08333333  0.00000000       0.005
  -0.08333333 -0.20833333  0.00000000       0.005
  -0.20833333  0.20833333  0.00000000       0.005
   0.00000000  0.20833333  0.00000000       0.005
   0.20833333  0.00000000  0.00000000       0.005
   0.29166667  0.29166667  0.00000000       0.005
  -0.41666667 -0.29166667  0.00000000       0.005
   0.29166667  0.41666667  0.00000000       0.005
   0.37500000  0.29166667  0.00000000       0.005
  -0.33333333 -0.37500000  0.00000000       0.005
   0.29166667  0.33333333  0.00000000       0.005
  -0.29166667 -0.37500000  0.00000000       0.005
   0.37500000  0.33333333  0.00000000       0.005
  -0.33333333 -0.29166667  0.00000000       0.005
   0.45833333  0.29166667  0.00000000       0.005
  -0.25000000 -0.45833333  0.00000000       0.005
   0.29166667  0.25000000  0.00000000       0.005
  -0.29166667 -0.45833333  0.00000000       0.005
   0.45833333  0.25000000  0.00000000       0.005
  -0.25000000 -0.29166667  0.00000000       0.005
  -0.45833333  0.29166667  0.00000000       0.005
  -0.16666667  0.45833333  0.00000000       0.005
   0.29166667  0.16666667  0.00000000       0.005
  -0.29166667  0.45833333  0.00000000       0.005
  -0.45833333  0.16666667  0.00000000       0.005
  -0.16666667 -0.29166667  0.00000000       0.005
  -0.37500000  0.29166667  0.00000000       0.005
  -0.08333333  0.37500000  0.00000000       0.005
   0.29166667  0.08333333  0.00000000       0.005
  -0.29166667  0.37500000  0.00000000       0.005
  -0.37500000  0.08333333  0.00000000       0.005
  -0.08333333 -0.29166667  0.00000000       0.005
  -0.29166667  0.29166667  0.00000000       0.005
   0.00000000  0.29166667  0.00000000       0.005
   0.29166667  0.00000000  0.00000000       0.005
   0.37500000  0.37500000  0.00000000       0.005
  -0.25000000 -0.37500000  0.00000000       0.005
   0.37500000  0.25000000  0.00000000       0.005
   0.45833333  0.37500000  0.00000000       0.005
  -0.16666667 -0.45833333  0.00000000       0.005
   0.37500000  0.16666667  0.00000000       0.005
  -0.37500000 -0.45833333  0.00000000       0.005
   0.45833333  0.16666667  0.00000000       0.005
  -0.16666667 -0.37500000  0.00000000       0.005
  -0.45833333  0.37500000  0.00000000       0.005
  -0.08333333  0.45833333  0.00000000       0.005
   0.37500000  0.08333333  0.00000000       0.005
  -0.37500000  0.45833333  0.00000000       0.005
  -0.45833333  0.08333333  0.00000000       0.005
  -0.08333333 -0.37500000  0.00000000       0.005
  -0.37500000  0.37500000  0.00000000       0.005
   0.00000000  0.37500000  0.00000000       0.005
   0.37500000  0.00000000  0.00000000       0.005
   0.45833333  0.45833333  0.00000000       0.005
  -0.08333333 -0.45833333  0.00000000       0.005
   0.45833333  0.08333333  0.00000000       0.005
  -0.45833333  0.45833333  0.00000000       0.005
   0.00000000  0.45833333  0.00000000       0.005
   0.45833333  0.00000000  0.00000000       0.005
 
 position of ions in fractional coordinates (direct lattice) 
   0.22222223  0.11111111  0.25000000
   0.55555556  0.11111111  0.25000000
   0.88888890  0.11111111  0.25000000
   0.22222223  0.44444445  0.25000000
   0.55555556  0.44444445  0.25000000
   0.88888890  0.44444445  0.25000000
   0.22222223  0.77777778  0.25000000
   0.55555556  0.77777778  0.25000000
   0.88888890  0.77777778  0.25000000
   0.11054878  0.22222223  0.35358979
   0.44444445  0.22222223  0.35415213
   0.77777778  0.22222223  0.35415213
   0.11111111  0.55555556  0.35415213
   0.44444445  0.55555556  0.35415213
   0.77777778  0.55555556  0.35415213
   0.11111111  0.88888890  0.35415213
   0.44444445  0.88888890  0.35415213
   0.77777778  0.88888890  0.35415213
   0.11111111  0.22222223  0.14584787
   0.44444445  0.22222223  0.14584787
   0.77777778  0.22222223  0.14584787
   0.11111111  0.55555556  0.14584787
   0.44444445  0.55555556  0.14584787
   0.77777778  0.55555556  0.14584787
   0.11111111  0.88888890  0.14584787
   0.44444445  0.88888890  0.14584787
   0.77777778  0.88888890  0.14584787
 
 position of ions in cartesian coordinates  (Angst):
   1.59193028  0.91910138  3.75000000
   4.77579075  0.91910138  3.75000000
   7.95965122  0.91910138  3.75000000
   0.00000005  3.67640542  3.75000000
   3.18386052  3.67640542  3.75000000
   6.36772099  3.67640542  3.75000000
  -1.59193018  6.43370947  3.75000000
   1.59193028  6.43370947  3.75000000
   4.77579075  6.43370947  3.75000000
  -0.00537121  1.83820275  5.30384690
   3.18386047  1.83820275  5.31228195
   6.36772094  1.83820275  5.31228195
  -1.59193024  4.59550680  5.31228195
   1.59193023  4.59550680  5.31228195
   4.77579070  4.59550680  5.31228195
  -3.18386047  7.35281085  5.31228195
  -0.00000000  7.35281085  5.31228195
   3.18386047  7.35281085  5.31228195
  -0.00000000  1.83820275  2.18771805
   3.18386047  1.83820275  2.18771805
   6.36772094  1.83820275  2.18771805
  -1.59193024  4.59550680  2.18771805
   1.59193023  4.59550680  2.18771805
   4.77579070  4.59550680  2.18771805
  -3.18386047  7.35281085  2.18771805
  -0.00000000  7.35281085  2.18771805
   3.18386047  7.35281085  2.18771805
 


--------------------------------------------------------------------------------------------------------


 k-point  1 :   0.0417 0.0417 0.0000  plane waves:   30153
 k-point  2 :   0.0833-0.0417 0.0000  plane waves:   30153
 k-point  3 :   0.0417-0.0833 0.0000  plane waves:   30153
 k-point  4 :   0.1250 0.0417 0.0000  plane waves:   30109
 k-point  5 :   0.1667-0.1250 0.0000  plane waves:   30109
 k-point  6 :   0.0417-0.1667 0.0000  plane waves:   30109
 k-point  7 :  -0.0417-0.1250 0.0000  plane waves:   30109
 k-point  8 :   0.1250-0.1667 0.0000  plane waves:   30109
 k-point  9 :   0.1667-0.0417 0.0000  plane waves:   30109
 k-point 10 :   0.2083 0.0417 0.0000  plane waves:   30123
 k-point 11 :   0.2500-0.2083 0.0000  plane waves:   30123
 k-point 12 :   0.0417-0.2500 0.0000  plane waves:   30123
 k-point 13 :  -0.0417-0.2083 0.0000  plane waves:   30123
 k-point 14 :   0.2083-0.2500 0.0000  plane waves:   30123
 k-point 15 :   0.2500-0.0417 0.0000  plane waves:   30123
 k-point 16 :   0.2917 0.0417 0.0000  plane waves:   30096
 k-point 17 :   0.3333-0.2917 0.0000  plane waves:   30096
 k-point 18 :   0.0417-0.3333 0.0000  plane waves:   30096
 k-point 19 :  -0.0417-0.2917 0.0000  plane waves:   30096
 k-point 20 :   0.2917-0.3333 0.0000  plane waves:   30096
 k-point 21 :   0.3333-0.0417 0.0000  plane waves:   30096
 k-point 22 :   0.3750 0.0417 0.0000  plane waves:   30072
 k-point 23 :   0.4167-0.3750 0.0000  plane waves:   30072
 k-point 24 :   0.0417-0.4167 0.0000  plane waves:   30072
 k-point 25 :  -0.0417-0.3750 0.0000  plane waves:   30072
 k-point 26 :   0.3750-0.4167 0.0000  plane waves:   30072
 k-point 27 :   0.4167-0.0417 0.0000  plane waves:   30072
 k-point 28 :   0.4583 0.0417 0.0000  plane waves:   30043
 k-point 29 :   0.5000-0.4583 0.0000  plane waves:   30043
 k-point 30 :   0.0417 0.5000 0.0000  plane waves:   30043
 k-point 31 :  -0.0417-0.4583 0.0000  plane waves:   30043
 k-point 32 :   0.4583 0.5000 0.0000  plane waves:   30043
 k-point 33 :   0.5000-0.0417 0.0000  plane waves:   30043
 k-point 34 :  -0.4583 0.0417 0.0000  plane waves:   30055
 k-point 35 :  -0.4167 0.4583 0.0000  plane waves:   30055
 k-point 36 :   0.0417 0.4167 0.0000  plane waves:   30055
 k-point 37 :  -0.0417 0.4583 0.0000  plane waves:   30055
 k-point 38 :  -0.4583 0.4167 0.0000  plane waves:   30055
 k-point 39 :  -0.4167-0.0417 0.0000  plane waves:   30055
 k-point 40 :  -0.3750 0.0417 0.0000  plane waves:   30085
 k-point 41 :  -0.3333 0.3750 0.0000  plane waves:   30085
 k-point 42 :   0.0417 0.3333 0.0000  plane waves:   30085
 k-point 43 :  -0.0417 0.3750 0.0000  plane waves:   30085
 k-point 44 :  -0.3750 0.3333 0.0000  plane waves:   30085
 k-point 45 :  -0.3333-0.0417 0.0000  plane waves:   30085
 k-point 46 :  -0.2917 0.0417 0.0000  plane waves:   30109
 k-point 47 :  -0.2500 0.2917 0.0000  plane waves:   30109
 k-point 48 :   0.0417 0.2500 0.0000  plane waves:   30109
 k-point 49 :  -0.0417 0.2917 0.0000  plane waves:   30109
 k-point 50 :  -0.2917 0.2500 0.0000  plane waves:   30109
 k-point 51 :  -0.2500-0.0417 0.0000  plane waves:   30109
 k-point 52 :  -0.2083 0.0417 0.0000  plane waves:   30131
 k-point 53 :  -0.1667 0.2083 0.0000  plane waves:   30131
 k-point 54 :   0.0417 0.1667 0.0000  plane waves:   30131
 k-point 55 :  -0.0417 0.2083 0.0000  plane waves:   30131
 k-point 56 :  -0.2083 0.1667 0.0000  plane waves:   30131
 k-point 57 :  -0.1667-0.0417 0.0000  plane waves:   30131
 k-point 58 :  -0.1250 0.0417 0.0000  plane waves:   30142
 k-point 59 :  -0.0833 0.1250 0.0000  plane waves:   30142
 k-point 60 :   0.0417 0.0833 0.0000  plane waves:   30142
 k-point 61 :  -0.0417 0.1250 0.0000  plane waves:   30142
 k-point 62 :  -0.1250 0.0833 0.0000  plane waves:   30142
 k-point 63 :  -0.0833-0.0417 0.0000  plane waves:   30142
 k-point 64 :  -0.0417 0.0417 0.0000  plane waves:   30173
 k-point 65 :   0.0000 0.0417 0.0000  plane waves:   30173
 k-point 66 :   0.0417 0.0000 0.0000  plane waves:   30173
 k-point 67 :   0.1250 0.1250 0.0000  plane waves:   30133
 k-point 68 :   0.2500-0.1250 0.0000  plane waves:   30133
 k-point 69 :   0.1250-0.2500 0.0000  plane waves:   30133
 k-point 70 :   0.2083 0.1250 0.0000  plane waves:   30085
 k-point 71 :   0.3333-0.2083 0.0000  plane waves:   30085
 k-point 72 :   0.1250-0.3333 0.0000  plane waves:   30085
 k-point 73 :  -0.1250-0.2083 0.0000  plane waves:   30085
 k-point 74 :   0.2083-0.3333 0.0000  plane waves:   30085
 k-point 75 :   0.3333-0.1250 0.0000  plane waves:   30085
 k-point 76 :   0.2917 0.1250 0.0000  plane waves:   30074
 k-point 77 :   0.4167-0.2917 0.0000  plane waves:   30074
 k-point 78 :   0.1250-0.4167 0.0000  plane waves:   30074
 k-point 79 :  -0.1250-0.2917 0.0000  plane waves:   30074
 k-point 80 :   0.2917-0.4167 0.0000  plane waves:   30074
 k-point 81 :   0.4167-0.1250 0.0000  plane waves:   30074
 k-point 82 :   0.3750 0.1250 0.0000  plane waves:   30071
 k-point 83 :   0.5000-0.3750 0.0000  plane waves:   30071
 k-point 84 :   0.1250 0.5000 0.0000  plane waves:   30071
 k-point 85 :  -0.1250-0.3750 0.0000  plane waves:   30071
 k-point 86 :   0.3750 0.5000 0.0000  plane waves:   30071
 k-point 87 :   0.5000-0.1250 0.0000  plane waves:   30071
 k-point 88 :   0.4583 0.1250 0.0000  plane waves:   30074
 k-point 89 :  -0.4167-0.4583 0.0000  plane waves:   30074
 k-point 90 :   0.1250 0.4167 0.0000  plane waves:   30074
 k-point 91 :  -0.1250-0.4583 0.0000  plane waves:   30074
 k-point 92 :   0.4583 0.4167 0.0000  plane waves:   30074
 k-point 93 :  -0.4167-0.1250 0.0000  plane waves:   30074
 k-point 94 :  -0.4583 0.1250 0.0000  plane waves:   30080
 k-point 95 :  -0.3333 0.4583 0.0000  plane waves:   30080
 k-point 96 :   0.1250 0.3333 0.0000  plane waves:   30080
 k-point 97 :  -0.1250 0.4583 0.0000  plane waves:   30080
 k-point 98 :  -0.4583 0.3333 0.0000  plane waves:   30080
 k-point 99 :  -0.3333-0.1250 0.0000  plane waves:   30080
 k-point ** :  -0.3750 0.1250 0.0000  plane waves:   30084
 k-point ** :  -0.2500 0.3750 0.0000  plane waves:   30084
 k-point ** :   0.1250 0.2500 0.0000  plane waves:   30084
 k-point ** :  -0.1250 0.3750 0.0000  plane waves:   30084
 k-point ** :  -0.3750 0.2500 0.0000  plane waves:   30084
 k-point ** :  -0.2500-0.1250 0.0000  plane waves:   30084
 k-point ** :  -0.2917 0.1250 0.0000  plane waves:   30116
 k-point ** :  -0.1667 0.2917 0.0000  plane waves:   30116
 k-point ** :   0.1250 0.1667 0.0000  plane waves:   30116
 k-point ** :  -0.1250 0.2917 0.0000  plane waves:   30116
 k-point ** :  -0.2917 0.1667 0.0000  plane waves:   30116
 k-point ** :  -0.1667-0.1250 0.0000  plane waves:   30116
 k-point ** :  -0.2083 0.1250 0.0000  plane waves:   30111
 k-point ** :  -0.0833 0.2083 0.0000  plane waves:   30111
 k-point ** :   0.1250 0.0833 0.0000  plane waves:   30111
 k-point ** :  -0.1250 0.2083 0.0000  plane waves:   30111
 k-point ** :  -0.2083 0.0833 0.0000  plane waves:   30111
 k-point ** :  -0.0833-0.1250 0.0000  plane waves:   30111
 k-point ** :  -0.1250 0.1250 0.0000  plane waves:   30138
 k-point ** :   0.0000 0.1250 0.0000  plane waves:   30138
 k-point ** :   0.1250 0.0000 0.0000  plane waves:   30138
 k-point ** :   0.2083 0.2083 0.0000  plane waves:   30093
 k-point ** :   0.4167-0.2083 0.0000  plane waves:   30093
 k-point ** :   0.2083-0.4167 0.0000  plane waves:   30093
 k-point ** :   0.2917 0.2083 0.0000  plane waves:   30084
 k-point ** :   0.5000-0.2917 0.0000  plane waves:   30084
 k-point ** :   0.2083 0.5000 0.0000  plane waves:   30084
 k-point ** :  -0.2083-0.2917 0.0000  plane waves:   30084
 k-point ** :   0.2917 0.5000 0.0000  plane waves:   30084
 k-point ** :   0.5000-0.2083 0.0000  plane waves:   30084
 k-point ** :   0.3750 0.2083 0.0000  plane waves:   30050
 k-point ** :  -0.4167-0.3750 0.0000  plane waves:   30050
 k-point ** :   0.2083 0.4167 0.0000  plane waves:   30050
 k-point ** :  -0.2083-0.3750 0.0000  plane waves:   30050
 k-point ** :   0.3750 0.4167 0.0000  plane waves:   30050
 k-point ** :  -0.4167-0.2083 0.0000  plane waves:   30050
 k-point ** :   0.4583 0.2083 0.0000  plane waves:   30051
 k-point ** :  -0.3333-0.4583 0.0000  plane waves:   30051
 k-point ** :   0.2083 0.3333 0.0000  plane waves:   30051
 k-point ** :  -0.2083-0.4583 0.0000  plane waves:   30051
 k-point ** :   0.4583 0.3333 0.0000  plane waves:   30051
 k-point ** :  -0.3333-0.2083 0.0000  plane waves:   30051
 k-point ** :  -0.4583 0.2083 0.0000  plane waves:   30094
 k-point ** :  -0.2500 0.4583 0.0000  plane waves:   30094
 k-point ** :   0.2083 0.2500 0.0000  plane waves:   30094
 k-point ** :  -0.2083 0.4583 0.0000  plane waves:   30094
 k-point ** :  -0.4583 0.2500 0.0000  plane waves:   30094
 k-point ** :  -0.2500-0.2083 0.0000  plane waves:   30094
 k-point ** :  -0.3750 0.2083 0.0000  plane waves:   30101
 k-point ** :  -0.1667 0.3750 0.0000  plane waves:   30101
 k-point ** :   0.2083 0.1667 0.0000  plane waves:   30101
 k-point ** :  -0.2083 0.3750 0.0000  plane waves:   30101
 k-point ** :  -0.3750 0.1667 0.0000  plane waves:   30101
 k-point ** :  -0.1667-0.2083 0.0000  plane waves:   30101
 k-point ** :  -0.2917 0.2083 0.0000  plane waves:   30117
 k-point ** :  -0.0833 0.2917 0.0000  plane waves:   30117
 k-point ** :   0.2083 0.0833 0.0000  plane waves:   30117
 k-point ** :  -0.2083 0.2917 0.0000  plane waves:   30117
 k-point ** :  -0.2917 0.0833 0.0000  plane waves:   30117
 k-point ** :  -0.0833-0.2083 0.0000  plane waves:   30117
 k-point ** :  -0.2083 0.2083 0.0000  plane waves:   30150
 k-point ** :   0.0000 0.2083 0.0000  plane waves:   30150
 k-point ** :   0.2083 0.0000 0.0000  plane waves:   30150
 k-point ** :   0.2917 0.2917 0.0000  plane waves:   30053
 k-point ** :  -0.4167-0.2917 0.0000  plane waves:   30053
 k-point ** :   0.2917 0.4167 0.0000  plane waves:   30053
 k-point ** :   0.3750 0.2917 0.0000  plane waves:   30054
 k-point ** :  -0.3333-0.3750 0.0000  plane waves:   30054
 k-point ** :   0.2917 0.3333 0.0000  plane waves:   30054
 k-point ** :  -0.2917-0.3750 0.0000  plane waves:   30054
 k-point ** :   0.3750 0.3333 0.0000  plane waves:   30054
 k-point ** :  -0.3333-0.2917 0.0000  plane waves:   30054
 k-point ** :   0.4583 0.2917 0.0000  plane waves:   30075
 k-point ** :  -0.2500-0.4583 0.0000  plane waves:   30075
 k-point ** :   0.2917 0.2500 0.0000  plane waves:   30075
 k-point ** :  -0.2917-0.4583 0.0000  plane waves:   30075
 k-point ** :   0.4583 0.2500 0.0000  plane waves:   30075
 k-point ** :  -0.2500-0.2917 0.0000  plane waves:   30075
 k-point ** :  -0.4583 0.2917 0.0000  plane waves:   30096
 k-point ** :  -0.1667 0.4583 0.0000  plane waves:   30096
 k-point ** :   0.2917 0.1667 0.0000  plane waves:   30096
 k-point ** :  -0.2917 0.4583 0.0000  plane waves:   30096
 k-point ** :  -0.4583 0.1667 0.0000  plane waves:   30096
 k-point ** :  -0.1667-0.2917 0.0000  plane waves:   30096
 k-point ** :  -0.3750 0.2917 0.0000  plane waves:   30096
 k-point ** :  -0.0833 0.3750 0.0000  plane waves:   30096
 k-point ** :   0.2917 0.0833 0.0000  plane waves:   30096
 k-point ** :  -0.2917 0.3750 0.0000  plane waves:   30096
 k-point ** :  -0.3750 0.0833 0.0000  plane waves:   30096
 k-point ** :  -0.0833-0.2917 0.0000  plane waves:   30096
 k-point ** :  -0.2917 0.2917 0.0000  plane waves:   30104
 k-point ** :   0.0000 0.2917 0.0000  plane waves:   30104
 k-point ** :   0.2917 0.0000 0.0000  plane waves:   30104
 k-point ** :   0.3750 0.3750 0.0000  plane waves:   30080
 k-point ** :  -0.2500-0.3750 0.0000  plane waves:   30080
 k-point ** :   0.3750 0.2500 0.0000  plane waves:   30080
 k-point ** :   0.4583 0.3750 0.0000  plane waves:   30070
[...]
    125       1.5210      0.00000
    126       1.6250      0.00000
    127       1.7384      0.00000
    128       1.7404      0.00000
    129       1.8247      0.00000
    130       1.8400      0.00000
    131       1.8726      0.00000
    132       1.9373      0.00000
    133       1.9505      0.00000
    134       1.9520      0.00000
    135       1.9887      0.00000
    136       1.9897      0.00000
    137       2.0142      0.00000
    138       2.1312      0.00000
    139       2.1321      0.00000
    140       2.5804      0.00000

 k-point   216 :       0.4583    0.0000    0.0000
  band No.  band energies     occupation 
      1     -61.5962      2.00000
      2     -61.5933      2.00000
      3     -61.5809      2.00000
      4     -61.5807      2.00000
      5     -61.5677      2.00000
      6     -61.5676      2.00000
      7     -61.5669      2.00000
      8     -61.5661      2.00000
      9     -61.5658      2.00000
     10     -35.9075      2.00000
     11     -35.8626      2.00000
     12     -35.8620      2.00000
     13     -35.8613      2.00000
     14     -35.8609      2.00000
     15     -35.7558      2.00000
     16     -35.7554      2.00000
     17     -35.7276      2.00000
     18     -35.7220      2.00000
     19     -35.6970      2.00000
     20     -35.6969      2.00000
     21     -35.6823      2.00000
     22     -35.6820      2.00000
     23     -35.6706      2.00000
     24     -35.6705      2.00000
     25     -35.6692      2.00000
     26     -35.6678      2.00000
     27     -35.6676      2.00000
     28     -35.6639      2.00000
     29     -35.6636      2.00000
     30     -35.6481      2.00000
     31     -35.6248      2.00000
     32     -35.6199      2.00000
     33     -35.6109      2.00000
     34     -35.6105      2.00000
     35     -35.5643      2.00000
     36     -35.5578      2.00000
     37     -14.4742      2.00000
     38     -14.3506      2.00000
     39     -13.7543      2.00000
     40     -13.7511      2.00000
     41     -13.3679      2.00000
     42     -13.3173      2.00000
     43     -13.0716      2.00000
     44     -13.0707      2.00000
     45     -13.0095      2.00000
     46     -13.0062      2.00000
     47     -12.9482      2.00000
     48     -12.9242      2.00000
     49     -12.9213      2.00000
     50     -12.7680      2.00000
     51     -12.7660      2.00000
     52     -12.7643      2.00000
     53     -12.7278      2.00000
     54     -12.7263      2.00000
     55      -6.4835      2.00000
     56      -6.0542      2.00000
     57      -6.0533      2.00000
     58      -5.9904      2.00000
     59      -5.9894      2.00000
     60      -5.9821      2.00000
     61      -5.8744      2.00000
     62      -5.6766      2.00000
     63      -5.6753      2.00000
     64      -5.6504      2.00000
     65      -5.6478      2.00000
     66      -5.5338      2.00000
     67      -5.5326      2.00000
     68      -5.4965      2.00000
     69      -4.7908      2.00000
     70      -4.5703      2.00000
     71      -4.5678      2.00000
     72      -4.5566      2.00000
     73      -4.5531      2.00000
     74      -4.5505      2.00000
     75      -4.5484      2.00000
     76      -4.4031      2.00000
     77      -4.4023      2.00000
     78      -4.1854      2.00000
     79      -3.9992      2.00000
     80      -3.9384      2.00000
     81      -3.9360      2.00000
     82      -3.9152      2.00000
     83      -3.9128      2.00000
     84      -3.8990      2.00000
     85      -3.8975      2.00000
     86      -3.8886      2.00000
     87      -3.7496      2.00000
     88      -3.5309      2.00000
     89      -3.2318      2.00000
     90      -3.2302      2.00000
     91      -2.9979      2.00000
     92      -2.9479      2.00000
     93      -2.9463      2.00000
     94      -2.8735      2.00000
     95      -2.8557      2.00000
     96      -2.7122      2.00000
     97      -2.6930      2.00000
     98      -2.6898      2.00000
     99      -2.6033      2.00000
    100      -2.4761      2.00000
    101      -2.4750      2.00000
    102      -2.4142      2.00000
    103      -2.4129      2.00000
    104      -1.8368      2.00000
    105      -1.7992      2.00000
    106      -1.7865      2.00000
    107      -1.7855      2.00000
    108      -1.7156      2.00000
    109      -1.5197      2.00000
    110      -1.5191      2.00000
    111      -1.3664      2.00000
    112      -1.2714      2.00000
    113      -1.2708      2.00000
    114      -1.1870      2.00000
    115      -1.1866      2.00000
    116      -1.0845      2.00000
    117      -0.9642      2.00000
    118       1.2087      0.00000
    119       1.2093      0.00000
    120       1.4479      0.00000
    121       1.4495      0.00000
    122       1.4938      0.00000
    123       1.4961      0.00000
    124       1.5054      0.00000
    125       1.5209      0.00000
    126       1.6247      0.00000
    127       1.7389      0.00000
    128       1.7405      0.00000
    129       1.8255      0.00000
    130       1.8403      0.00000
    131       1.8733      0.00000
    132       1.9378      0.00000
    133       1.9508      0.00000
    134       1.9519      0.00000
    135       1.9887      0.00000
    136       1.9894      0.00000
    137       2.0142      0.00000
    138       2.1312      0.00000
    139       2.1318      0.00000
    140       2.5403      0.00000


--------------------------------------------------------------------------------------------------------


 soft charge-density along one line, spin component           1
         0         1         2         3         4         5         6         7         8         9
 total charge-density along one line
 
 pseudopotential strength for first ion, spin component:           1
 -4.623  12.868  -0.000  -0.000   0.000   0.000   0.000  -0.000
 12.868   3.192   0.000   0.000  -0.000  -0.000  -0.000   0.000
 -0.000   0.000 -19.724   0.000   0.000  10.710  -0.000  -0.000
 -0.000   0.000   0.000 -19.718  -0.000  -0.000  10.703   0.000
  0.000  -0.000   0.000  -0.000 -19.724  -0.000   0.000  10.710
  0.000  -0.000  10.710  -0.000  -0.000   4.735   0.000   0.000
  0.000  -0.000  -0.000  10.703   0.000   0.000   4.736  -0.000
 -0.000   0.000  -0.000   0.000  10.710   0.000  -0.000   4.735
  0.000  -0.000   0.000   0.000  -0.007  -0.000  -0.000   0.003
  0.000  -0.000  -0.000  -0.000   0.000   0.000   0.000  -0.000
  0.006  -0.003   0.000  -0.000   0.000  -0.000   0.000   0.000
 -0.000   0.000   0.000   0.000  -0.000  -0.000  -0.000   0.000
 -0.000   0.000  -0.007  -0.000   0.000   0.003   0.000  -0.000
  0.000  -0.000   0.000   0.000  -0.008  -0.000  -0.000   0.004
  0.000  -0.000  -0.000  -0.000   0.000   0.000   0.000  -0.000
  0.006  -0.003   0.000  -0.000   0.000  -0.000   0.000   0.000
 -0.000   0.000   0.000   0.000  -0.000  -0.000  -0.000   0.000
 -0.000   0.000  -0.007  -0.000   0.000   0.004   0.000  -0.000
 total augmentation occupancy for first ion, spin component:           1
  1.995  -0.041   0.000  -0.000  -0.000   0.000  -0.000  -0.000  -0.000  -0.000  -0.009   0.000   0.000   0.000   0.000   0.007
 -0.041   1.190  -0.000  -0.000   0.000   0.000   0.000  -0.000   0.001  -0.000  -0.029   0.002  -0.002  -0.002   0.000   0.130
  0.000  -0.000   1.998   0.000  -0.000  -0.044   0.000  -0.000   0.000   0.000  -0.000   0.000  -0.009  -0.000  -0.000   0.000
 -0.000  -0.000   0.000   1.998  -0.000   0.000  -0.050  -0.000   0.000   0.000   0.000   0.000  -0.000  -0.000  -0.000  -0.000
 -0.000   0.000  -0.000  -0.000   1.998  -0.000  -0.000  -0.044  -0.009   0.000  -0.000   0.000   0.000  -0.002  -0.000  -0.000
  0.000   0.000  -0.044   0.000  -0.000   0.100   0.000  -0.000   0.000  -0.000   0.000   0.000  -0.192  -0.001   0.000  -0.000
 -0.000   0.000   0.000  -0.050  -0.000   0.000   0.122  -0.000   0.000   0.000   0.001   0.000  -0.000  -0.000   0.000  -0.001
 -0.000  -0.000  -0.000  -0.000  -0.044  -0.000  -0.000   0.100  -0.192   0.000  -0.001  -0.001   0.001   0.219  -0.000   0.001
 -0.000   0.001   0.000   0.000  -0.009   0.000   0.000  -0.192   2.503  -0.003   0.002   0.005  -0.003  -2.889   0.004  -0.004
 -0.000  -0.000   0.000   0.000   0.000  -0.000   0.000   0.000  -0.003   3.901  -0.002  -0.002   0.002   0.004  -4.855   0.004
 -0.009  -0.029  -0.000   0.000  -0.000   0.000   0.001  -0.001   0.002  -0.002   1.744   0.003  -0.002  -0.004   0.004  -1.843
  0.000   0.002   0.000   0.000   0.000   0.000   0.000  -0.001   0.005  -0.002   0.003   3.907  -0.005  -0.006   0.003  -0.005
  0.000  -0.002  -0.009  -0.000   0.000  -0.192  -0.000   0.001  -0.003   0.002  -0.002  -0.005   2.501   0.004  -0.002   0.003
  0.000  -0.002  -0.000  -0.000  -0.002  -0.001  -0.000   0.219  -2.889   0.004  -0.004  -0.006   0.004   4.047  -0.004   0.005
  0.000   0.000  -0.000  -0.000  -0.000   0.000   0.000  -0.000   0.004  -4.855   0.004   0.003  -0.002  -0.004   6.452  -0.004
  0.007   0.130   0.000  -0.000  -0.000  -0.000  -0.001   0.001  -0.004   0.004  -1.843  -0.005   0.003   0.005  -0.004   2.813
 -0.000  -0.002  -0.000  -0.000  -0.000  -0.000  -0.000   0.001  -0.006   0.003  -0.005  -4.863   0.007   0.007  -0.003   0.007
 -0.000   0.002  -0.002   0.000  -0.000   0.219   0.000  -0.001   0.004  -0.002   0.003   0.007  -2.888  -0.004   0.003  -0.003


------------------------ aborting loop because EDIFF is reached ----------------------------------------


    CHARGE:  cpu time    9.7330: real time    9.7333
    FORLOC:  cpu time    0.0350: real time    0.0350
    FORNL :  cpu time  104.9378: real time  104.9411
    STRESS:  cpu time  112.3719: real time  112.3755
    FORCOR:  cpu time    0.2600: real time    0.2600
    FORHAR:  cpu time    0.0854: real time    0.0859
    MIXING:  cpu time    0.0130: real time    0.0130
    OFIELD:  cpu time    0.0001: real time    0.0001

  FORCE on cell =-STRESS in cart. coord.  units (eV):
  Direction    XX          YY          ZZ          XY          YZ          ZX
  --------------------------------------------------------------------------------------
  Alpha Z   323.32137   323.32137   323.32137
  Ewald   37451.34162 37451.34428-50104.36166     0.75973     0.00343     0.53985
  Hartree 41897.72161 41897.72325-39693.91414     0.27453     0.00090     0.15830
  E(xc)    -986.74321  -986.74322  -988.76610     0.00153     0.00000     0.00119
  Local  -83474.29635-83474.30087 85607.20459    -1.01815    -0.00415    -0.70747
  n-local  1069.75278  1069.75295  1118.13090     0.02355     0.00021     0.04236
  augment    -4.77661    -4.77652   -15.15734     0.00054    -0.00004    -0.00156
  Kinetic  3723.74315  3723.74312  3753.57135    -0.02465    -0.00004     0.04385
  Fock        0.00000     0.00000     0.00000     0.00000     0.00000     0.00000
  -------------------------------------------------------------------------------------
  Total       0.06437     0.06436     0.02897     0.01708     0.00032     0.07652
  in kB       0.08702     0.08701     0.03916     0.02309     0.00044     0.10345
  external pressure =        0.07 kB  Pullay stress =        0.00 kB


 VOLUME and BASIS-vectors are now :
 -----------------------------------------------------------------------------
  energy-cutoff  :      500.00
  volume of cell :     1185.15
      direct lattice vectors                 reciprocal lattice vectors
     9.551581406  0.000000000  0.000000000     0.104694705  0.060445516  0.000000000
    -4.775790703  8.271912144  0.000000000     0.000000000  0.120891033  0.000000000
     0.000000000  0.000000000 15.000000000     0.000000000  0.000000000  0.066666667

  length of vectors
     9.551581406  9.551581406 15.000000000     0.120891033  0.120891033  0.066666667


 FORCES acting on ions
    electron-ion (+dipol)            ewald-force                    non-local-force                 convergence-correction
 -----------------------------------------------------------------------------------------------
   -.736E+00 0.176E+00 -.437E+00   0.739E+00 -.182E+00 0.421E+00   -.171E-02 -.519E-03 -.644E-02   -.108E-06 0.336E-05 -.468E-06
   0.165E+00 0.152E-01 -.113E+00   -.165E+00 -.159E-01 0.111E+00   -.608E-03 0.112E-02 0.874E-03   -.169E-05 0.154E-05 -.510E-06
   0.109E+01 0.881E+00 0.742E+00   -.111E+01 -.888E+00 -.760E+00   -.280E-01 -.149E-01 -.365E-01   0.193E-05 -.172E-05 -.521E-06
   -.433E+00 -.105E+01 0.150E+00   0.426E+00 0.107E+01 -.168E+00   -.240E-02 0.148E-01 -.214E-01   0.509E-05 0.445E-06 -.557E-06
   0.796E-02 0.315E-01 -.201E+00   -.751E-02 -.325E-01 0.201E+00   0.745E-04 -.566E-03 -.435E-03   -.265E-05 0.210E-05 -.618E-06
   0.258E+00 -.176E+00 -.425E-01   -.260E+00 0.179E+00 0.396E-01   0.131E-02 -.105E-02 0.243E-03   -.237E-05 0.696E-06 -.568E-06
   0.903E-02 -.897E-01 -.122E+00   -.871E-02 0.899E-01 0.119E+00   -.924E-03 0.219E-03 0.704E-03   0.890E-06 -.409E-06 -.561E-06
   0.352E-01 0.748E-01 -.104E+00   -.361E-01 -.743E-01 0.102E+00   0.939E-03 -.491E-03 0.105E-02   0.297E-05 -.445E-05 -.773E-06
   -.470E-01 0.144E+00 -.122E+00   0.492E-01 -.146E+00 0.120E+00   0.271E-03 0.127E-02 -.967E-04   -.392E-05 -.152E-05 -.662E-06
   -.820E+00 -.227E-02 -.833E+03   0.820E+00 0.221E-02 0.837E+03   0.608E-01 0.266E-03 -.450E+01   0.129E-05 0.754E-07 0.117E-05
   0.195E+00 0.125E-03 -.834E+03   -.199E+00 -.201E-05 0.838E+03   -.961E-03 0.351E-03 -.459E+01   -.216E-05 0.971E-06 0.266E-05
   0.197E+00 0.278E-03 -.834E+03   -.199E+00 -.201E-05 0.838E+03   -.185E-02 -.187E-03 -.459E+01   0.883E-06 0.293E-06 0.323E-05
   -.325E-02 -.116E+00 -.834E+03   0.365E-02 0.116E+00 0.838E+03   -.728E-03 0.499E-03 -.459E+01   0.895E-06 -.163E-06 0.244E-05
   -.319E-02 0.114E+00 -.834E+03   0.278E-02 -.117E+00 0.838E+03   -.239E-03 -.341E-04 -.459E+01   0.371E-06 -.126E-05 0.153E-05
   0.369E-01 -.891E-04 -.834E+03   -.370E-01 0.849E-04 0.838E+03   0.376E-03 -.125E-03 -.459E+01   -.126E-05 -.228E-06 0.243E-05
   -.307E-02 -.115E+00 -.834E+03   0.278E-02 0.117E+00 0.838E+03   -.794E-03 0.231E-03 -.459E+01   -.109E-06 0.130E-05 0.300E-05
   0.371E-01 0.933E-04 -.834E+03   -.370E-01 -.889E-04 0.838E+03   0.208E-03 0.734E-04 -.459E+01   -.326E-06 -.961E-06 0.445E-05
   -.244E-02 0.116E+00 -.834E+03   0.365E-02 -.116E+00 0.838E+03   -.110E-02 -.830E-03 -.459E+01   0.469E-06 -.277E-07 0.256E-05
   -.773E-01 -.275E-05 0.834E+03   0.787E-01 -.201E-05 -.839E+03   0.163E-03 0.120E-04 0.459E+01   0.133E-05 0.597E-07 -.982E-06
   -.260E-01 -.733E-03 0.834E+03   0.273E-01 -.201E-05 -.838E+03   -.616E-03 0.128E-02 0.459E+01   -.220E-05 0.983E-06 -.270E-05
   0.902E-01 -.131E-02 0.834E+03   -.915E-01 -.201E-05 -.838E+03   -.118E-02 0.323E-02 0.459E+01   0.894E-06 0.264E-06 -.319E-05
   0.222E-01 -.716E-01 0.834E+03   -.230E-01 0.738E-01 -.838E+03   -.281E-03 -.136E-02 0.459E+01   0.973E-06 -.136E-06 -.240E-05
   -.377E-01 -.280E-01 0.834E+03   0.363E-01 0.291E-01 -.838E+03   0.382E-02 -.614E-03 0.459E+01   0.352E-06 -.121E-05 -.164E-05
   0.149E-01 -.341E-04 0.834E+03   -.149E-01 0.295E-04 -.838E+03   -.110E-03 -.123E-03 0.459E+01   -.132E-05 -.218E-06 -.234E-05
   -.351E-01 0.271E-01 0.834E+03   0.363E-01 -.291E-01 -.838E+03   -.859E-03 0.172E-02 0.459E+01   -.130E-06 0.135E-05 -.299E-05
   0.148E-01 0.379E-04 0.834E+03   -.149E-01 -.336E-04 -.838E+03   -.441E-04 0.735E-04 0.459E+01   -.287E-06 -.101E-05 -.438E-05
   0.212E-01 0.746E-01 0.834E+03   -.230E-01 -.738E-01 -.838E+03   0.277E-02 -.425E-02 0.459E+01   0.453E-06 -.625E-07 -.267E-05
 -----------------------------------------------------------------------------------------------
   -.284E-01 -.159E-03 -.282E-01   0.405E-14 -.463E-13 -.114E-12   0.284E-01 0.156E-03 0.282E-01   0.268E-06 0.435E-07 -.507E-05
 
 
 POSITION                                       TOTAL-FORCE (eV/Angst)
 -----------------------------------------------------------------------------------
      1.59193      0.91910      3.75000         0.001213     -0.005899     -0.022579
      4.77579      0.91910      3.75000        -0.000708      0.000403     -0.001486
      7.95965      0.91910      3.75000        -0.046933     -0.022116     -0.055264
      0.00000      3.67641      3.75000        -0.008816      0.027313     -0.038757
      3.18386      3.67641      3.75000         0.000523     -0.001557     -0.000937
      6.36772      3.67641      3.75000        -0.001069      0.001567     -0.002608
     -1.59193      6.43371      3.75000        -0.000599      0.000484     -0.001513
      1.59193      6.43371      3.75000         0.000036     -0.000007     -0.001461
      4.77579      6.43371      3.75000         0.002433     -0.000346     -0.001769
     -0.00537      1.83820      5.30385         0.060160      0.000201      0.120194
      3.18386      1.83820      5.31228        -0.004250      0.000476      0.004044
      6.36772      1.83820      5.31228        -0.002872      0.000090      0.003027
     -1.59193      4.59551      5.31228        -0.000335      0.001101      0.003234
      1.59193      4.59551      5.31228        -0.000653     -0.002824      0.003991
      4.77579      4.59551      5.31228         0.000287     -0.000129     -0.000172
     -3.18386      7.35281      5.31228        -0.001093      0.002175      0.003765
     -0.00000      7.35281      5.31228         0.000284      0.000077     -0.000104
      3.18386      7.35281      5.31228         0.000102     -0.000981      0.003505
     -0.00000      1.83820      2.18772         0.001552      0.000007     -0.015027
      3.18386      1.83820      2.18772         0.000704      0.000551      0.000708
      6.36772      1.83820      2.18772        -0.002461      0.001916     -0.001187
     -1.59193      4.59551      2.18772        -0.001134      0.000859     -0.000125
      1.59193      4.59551      2.18772         0.002495      0.000441     -0.000490
      4.77579      4.59551      2.18772        -0.000106     -0.000128      0.000878
     -3.18386      7.35281      2.18772         0.000396     -0.000287      0.000792
     -0.00000      7.35281      2.18772        -0.000106      0.000077      0.000811
      3.18386      7.35281      2.18772         0.000950     -0.003461     -0.001468
 -----------------------------------------------------------------------------------
    total drift:                                0.000034     -0.000002     -0.000007


--------------------------------------------------------------------------------------------------------



  FREE ENERGIE OF THE ION-ELECTRON SYSTEM (eV)
  ---------------------------------------------------
  free  energy   TOTEN  =      -196.61835798 eV

  energy  without entropy=     -196.61835798  energy(sigma->0) =     -196.61835798
 


--------------------------------------------------------------------------------------------------------


    POTLOK:  cpu time    0.2469: real time    0.2470


--------------------------------------------------------------------------------------------------------


     LOOP+:  cpu time10603.0246: real time10604.1611
    4ORBIT:  cpu time    0.0000: real time    0.0000

 total amount of memory used by VASP MPI-rank0   985946. kBytes
=======================================================================

   base      :      30000. kBytes
   nonl-proj :     190049. kBytes
   fftplans  :       9067. kBytes
   grid      :      14574. kBytes
   one-center:         46. kBytes
   wavefun   :     742210. kBytes
 
  
  
 General timing and accounting informations for this job:
 ========================================================
  
                  Total CPU time used (sec):    10666.378
                            User time (sec):    10655.499
                          System time (sec):       10.879
                         Elapsed time (sec):    10669.337
  
                   Maximum memory used (kb):     1350780.
                   Average memory used (kb):           0.
  
                          Minor page faults:       659158
                          Major page faults:            2
                 Voluntary context switches:         1537
