<?xml version="1.0" encoding="ISO-8859-1"?>
<modeling>
 <generator>
  <i name="program" type="string">vasp </i>
  <i name="version" type="string">5.4.4.18Apr17-6-g9f103f2a35  </i>
  <i name="subversion" type="string">(build Apr 28 2023 10:04:10) complex            parallel </i>
  <i name="platform" type="string">LinuxIFC </i>
  <i name="date" type="string">2023 11 10 </i>
  <i name="time" type="string">22:07:41 </i>
 </generator>
 <incar>
  <i type="string" name="PREC">accurate</i>
  <i type="int" name="IALGO">    38</i>
  <i type="int" name="IBRION">    -1</i>
  <i name="EDIFF">      0.00000001</i>
  <i name="ENCUT">    500.00000000</i>
  <i type="logical" name="LREAL"> F  </i>
  <i type="int" name="ISMEAR">     0</i>
  <i name="SIGMA">      0.10000000</i>
  <i type="logical" name="LWAVE"> F  </i>
  <i type="logical" name="LCHARG"> F  </i>
  <v type="int" name="KPOINT_BSE">    -1     0     0     0</v>
 </incar>
 <structure name="primitive_cell" >
  <crystal>
   <varray name="basis" >
    <v>       9.55158141       0.00000000       0.00000000 </v>
    <v>      -4.77579070       8.27191214       0.00000000 </v>
    <v>       0.00000000       0.00000000      15.00000000 </v>
   </varray>
   <i name="volume">   1185.14763341 </i>
   <varray name="rec_basis" >
    <v>       0.10469471       0.06044552       0.00000000 </v>
    <v>       0.00000000       0.12089103       0.00000000 </v>
    <v>       0.00000000       0.00000000       0.06666667 </v>
   </varray>
  </crystal>
  <varray name="positions" >
   <v>       0.22222223       0.11111111       0.25000000 </v>
   <v>       0.11054878       0.22222223       0.35358979 </v>
   <v>       0.44444445       0.22222223       0.35415213 </v>
   <v>       0.44444445       0.22222223       0.14584787 </v>
   <v>       0.11111111      -0.11111110       0.35415213 </v>
   <v>       0.11111111      -0.11111110       0.14584787 </v>
   <v>       0.11111111       0.22222223       0.14584787 </v>
   <v>      -0.44444444       0.11111111       0.25000000 </v>
   <v>      -0.11111110       0.11111111       0.25000000 </v>
   <v>      -0.44444444       0.44444445       0.25000000 </v>
   <v>       0.22222223       0.44444445       0.25000000 </v>
   <v>       0.22222223      -0.22222222       0.25000000 </v>
   <v>      -0.11111110      -0.22222222       0.25000000 </v>
   <v>       0.44444445      -0.11111110       0.35415213 </v>
   <v>       0.44444445      -0.11111110       0.14584787 </v>
   <v>      -0.22222222      -0.11111110       0.35415213 </v>
   <v>      -0.22222222      -0.11111110       0.14584787 </v>
   <v>       0.44444445      -0.44444444       0.35415213 </v>
   <v>       0.44444445      -0.44444444       0.14584787 </v>
   <v>      -0.22222222       0.22222223       0.35415213 </v>
   <v>      -0.22222222       0.22222223       0.14584787 </v>
   <v>       0.11111111      -0.44444444       0.35415213 </v>
   <v>       0.11111111      -0.44444444       0.14584787 </v>
   <v>      -0.22222222      -0.44444444       0.35415213 </v>
   <v>      -0.22222222      -0.44444444       0.14584787 </v>
   <v>      -0.11111110       0.44444445       0.25000000 </v>
   <v>      -0.44444444      -0.22222222       0.25000000 </v>
  </varray>
 </structure>
 <varray name="primitive_index" >
  <v type="int" >        1 </v>
  <v type="int" >       10 </v>
  <v type="int" >       11 </v>
  <v type="int" >       20 </v>
  <v type="int" >       16 </v>
  <v type="int" >       25 </v>
  <v type="int" >       19 </v>
  <v type="int" >        2 </v>
  <v type="int" >        3 </v>
  <v type="int" >        5 </v>
  <v type="int" >        4 </v>
  <v type="int" >        7 </v>
  <v type="int" >        9 </v>
  <v type="int" >       17 </v>
  <v type="int" >       26 </v>
  <v type="int" >       18 </v>
  <v type="int" >       27 </v>
  <v type="int" >       14 </v>
  <v type="int" >       23 </v>
  <v type="int" >       12 </v>
  <v type="int" >       21 </v>
  <v type="int" >       13 </v>
  <v type="int" >       22 </v>
  <v type="int" >       15 </v>
  <v type="int" >       24 </v>
  <v type="int" >        6 </v>
  <v type="int" >        8 </v>
 </varray>
 <kpoints>
  <generation param="Monkhorst-Pack">
   <v type="int" name="divisions">      12       12        1 </v>
   <v name="usershift">      0.00000000       0.00000000       0.00000000 </v>
   <v name="genvec1">      0.08333333      -0.00000000       0.00000000 </v>
   <v name="genvec2">      0.00000000       0.08333333       0.00000000 </v>
   <v name="genvec3">      0.00000000       0.00000000       1.00000000 </v>
   <v name="shift">      0.50000000       0.50000000       0.00000000 </v>
  </generation>
  <varray name="kpointlist" >
   <v>       0.04166667       0.04166667       0.00000000 </v>
   <v>       0.08333333      -0.04166667       0.00000000 </v>
   <v>       0.04166667      -0.08333333       0.00000000 </v>
   <v>       0.12500000       0.04166667       0.00000000 </v>
   <v>       0.16666667      -0.12500000       0.00000000 </v>
   <v>       0.04166667      -0.16666667       0.00000000 </v>
   <v>      -0.04166667      -0.12500000       0.00000000 </v>
   <v>       0.12500000      -0.16666667       0.00000000 </v>
   <v>       0.16666667      -0.04166667       0.00000000 </v>
   <v>       0.20833333       0.04166667       0.00000000 </v>
   <v>       0.25000000      -0.20833333       0.00000000 </v>
   <v>       0.04166667      -0.25000000       0.00000000 </v>
   <v>      -0.04166667      -0.20833333       0.00000000 </v>
   <v>       0.20833333      -0.25000000       0.00000000 </v>
   <v>       0.25000000      -0.04166667       0.00000000 </v>
   <v>       0.29166667       0.04166667       0.00000000 </v>
   <v>       0.33333333      -0.29166667       0.00000000 </v>
   <v>       0.04166667      -0.33333333       0.00000000 </v>
   <v>      -0.04166667      -0.29166667       0.00000000 </v>
   <v>       0.29166667      -0.33333333       0.00000000 </v>
   <v>       0.33333333      -0.04166667       0.00000000 </v>
   <v>       0.37500000       0.04166667       0.00000000 </v>
   <v>       0.41666667      -0.37500000       0.00000000 </v>
   <v>       0.04166667      -0.41666667       0.00000000 </v>
   <v>      -0.04166667      -0.37500000       0.00000000 </v>
   <v>       0.37500000      -0.41666667       0.00000000 </v>
   <v>       0.41666667      -0.04166667       0.00000000 </v>
   <v>       0.45833333       0.04166667       0.00000000 </v>
   <v>       0.50000000      -0.45833333       0.00000000 </v>
   <v>       0.04166667       0.50000000       0.00000000 </v>
   <v>      -0.04166667      -0.45833333       0.00000000 </v>
   <v>       0.45833333       0.50000000       0.00000000 </v>
   <v>       0.50000000      -0.04166667       0.00000000 </v>
   <v>      -0.45833333       0.04166667       0.00000000 </v>
   <v>      -0.41666667       0.45833333       0.00000000 </v>
   <v>       0.04166667       0.41666667       0.00000000 </v>
   <v>      -0.04166667       0.45833333       0.00000000 </v>
   <v>      -0.45833333       0.41666667       0.00000000 </v>
   <v>      -0.41666667      -0.04166667       0.00000000 </v>
   <v>      -0.37500000       0.04166667       0.00000000 </v>
   <v>      -0.33333333       0.37500000       0.00000000 </v>
   <v>       0.04166667       0.33333333       0.00000000 </v>
   <v>      -0.04166667       0.37500000       0.00000000 </v>
   <v>      -0.37500000       0.33333333       0.00000000 </v>
   <v>      -0.33333333      -0.04166667       0.00000000 </v>
   <v>      -0.29166667       0.04166667       0.00000000 </v>
   <v>      -0.25000000       0.29166667       0.00000000 </v>
   <v>       0.04166667       0.25000000       0.00000000 </v>
   <v>      -0.04166667       0.29166667       0.00000000 </v>
   <v>      -0.29166667       0.25000000       0.00000000 </v>
   <v>      -0.25000000      -0.04166667       0.00000000 </v>
   <v>      -0.20833333       0.04166667       0.00000000 </v>
   <v>      -0.16666667       0.20833333       0.00000000 </v>
   <v>       0.04166667       0.16666667       0.00000000 </v>
   <v>      -0.04166667       0.20833333       0.00000000 </v>
   <v>      -0.20833333       0.16666667       0.00000000 </v>
   <v>      -0.16666667      -0.04166667       0.00000000 </v>
   <v>      -0.12500000       0.04166667       0.00000000 </v>
   <v>      -0.08333333       0.12500000       0.00000000 </v>
   <v>       0.04166667       0.08333333       0.00000000 </v>
   <v>      -0.04166667       0.12500000       0.00000000 </v>
   <v>      -0.12500000       0.08333333       0.00000000 </v>
   <v>      -0.08333333      -0.04166667       0.00000000 </v>
   <v>      -0.04166667       0.04166667       0.00000000 </v>
   <v>       0.00000000       0.04166667       0.00000000 </v>
   <v>       0.04166667       0.00000000       0.00000000 </v>
   <v>       0.12500000       0.12500000       0.00000000 </v>
   <v>       0.25000000      -0.12500000       0.00000000 </v>
   <v>       0.12500000      -0.25000000       0.00000000 </v>
   <v>       0.20833333       0.12500000       0.00000000 </v>
   <v>       0.33333333      -0.20833333       0.00000000 </v>
   <v>       0.12500000      -0.33333333       0.00000000 </v>
   <v>      -0.12500000      -0.20833333       0.00000000 </v>
   <v>       0.20833333      -0.33333333       0.00000000 </v>
   <v>       0.33333333      -0.12500000       0.00000000 </v>
   <v>       0.29166667       0.12500000       0.00000000 </v>
   <v>       0.41666667      -0.29166667       0.00000000 </v>
   <v>       0.12500000      -0.41666667       0.00000000 </v>
   <v>      -0.12500000      -0.29166667       0.00000000 </v>
   <v>       0.29166667      -0.41666667       0.00000000 </v>
   <v>       0.41666667      -0.12500000       0.00000000 </v>
   <v>       0.37500000       0.12500000       0.00000000 </v>
   <v>       0.50000000      -0.37500000       0.00000000 </v>
   <v>       0.12500000       0.50000000       0.00000000 </v>
   <v>      -0.12500000      -0.37500000       0.00000000 </v>
   <v>       0.37500000       0.50000000       0.00000000 </v>
   <v>       0.50000000      -0.12500000       0.00000000 </v>
   <v>       0.45833333       0.12500000       0.00000000 </v>
   <v>      -0.41666667      -0.45833333       0.00000000 </v>
   <v>       0.12500000       0.41666667       0.00000000 </v>
   <v>      -0.12500000      -0.45833333       0.00000000 </v>
   <v>       0.45833333       0.41666667       0.00000000 </v>
   <v>      -0.41666667      -0.12500000       0.00000000 </v>
   <v>      -0.45833333       0.12500000       0.00000000 </v>
   <v>      -0.33333333       0.45833333       0.00000000 </v>
   <v>       0.12500000       0.33333333       0.00000000 </v>
   <v>      -0.12500000       0.45833333       0.00000000 </v>
   <v>      -0.45833333       0.33333333       0.00000000 </v>
   <v>      -0.33333333      -0.12500000       0.00000000 </v>
   <v>      -0.37500000       0.12500000       0.00000000 </v>
   <v>      -0.25000000       0.37500000       0.00000000 </v>
   <v>       0.12500000       0.25000000       0.00000000 </v>
   <v>      -0.12500000       0.37500000       0.00000000 </v>
   <v>      -0.37500000       0.25000000       0.00000000 </v>
   <v>      -0.25000000      -0.12500000       0.00000000 </v>
   <v>      -0.29166667       0.12500000       0.00000000 </v>
   <v>      -0.16666667       0.29166667       0.00000000 </v>
   <v>       0.12500000       0.16666667       0.00000000 </v>
   <v>      -0.12500000       0.29166667       0.00000000 </v>
   <v>      -0.29166667       0.16666667       0.00000000 </v>
   <v>      -0.16666667      -0.12500000       0.00000000 </v>
   <v>      -0.20833333       0.12500000       0.00000000 </v>
   <v>      -0.08333333       0.20833333       0.00000000 </v>
   <v>       0.12500000       0.08333333       0.00000000 </v>
   <v>      -0.12500000       0.20833333       0.00000000 </v>
   <v>      -0.20833333       0.08333333       0.00000000 </v>
   <v>      -0.08333333      -0.12500000       0.00000000 </v>
   <v>      -0.12500000       0.12500000       0.00000000 </v>
   <v>       0.00000000       0.12500000       0.00000000 </v>
   <v>       0.12500000       0.00000000       0.00000000 </v>
   <v>       0.20833333       0.20833333       0.00000000 </v>
   <v>       0.41666667      -0.20833333       0.00000000 </v>
   <v>       0.20833333      -0.41666667       0.00000000 </v>
   <v>       0.29166667       0.20833333       0.00000000 </v>
   <v>       0.50000000      -0.29166667       0.00000000 </v>
   <v>       0.20833333       0.50000000       0.00000000 </v>
   <v>      -0.20833333      -0.29166667       0.00000000 </v>
   <v>       0.29166667       0.50000000       0.00000000 </v>
   <v>       0.50000000      -0.20833333       0.00000000 </v>
   <v>       0.37500000       0.20833333       0.00000000 </v>
   <v>      -0.41666667      -0.37500000       0.00000000 </v>
   <v>       0.20833333       0.41666667       0.00000000 </v>
   <v>      -0.20833333      -0.37500000       0.00000000 </v>
   <v>       0.37500000       0.41666667       0.00000000 </v>
   <v>      -0.41666667      -0.20833333       0.00000000 </v>
   <v>       0.45833333       0.20833333       0.00000000 </v>
   <v>      -0.33333333      -0.45833333       0.00000000 </v>
   <v>       0.20833333       0.33333333       0.00000000 </v>
   <v>      -0.20833333      -0.45833333       0.00000000 </v>
   <v>       0.45833333       0.33333333       0.00000000 </v>
   <v>      -0.33333333      -0.20833333       0.00000000 </v>
   <v>      -0.45833333       0.20833333       0.00000000 </v>
   <v>      -0.25000000       0.45833333       0.00000000 </v>
   <v>       0.20833333       0.25000000       0.00000000 </v>
   <v>      -0.20833333       0.45833333       0.00000000 </v>
   <v>      -0.45833333       0.25000000       0.00000000 </v>
   <v>      -0.25000000      -0.20833333       0.00000000 </v>
   <v>      -0.37500000       0.20833333       0.00000000 </v>
   <v>      -0.16666667       0.37500000       0.00000000 </v>
   <v>       0.20833333       0.16666667       0.00000000 </v>
   <v>      -0.20833333       0.37500000       0.00000000 </v>
   <v>      -0.37500000       0.16666667       0.00000000 </v>
   <v>      -0.16666667      -0.20833333       0.00000000 </v>
   <v>      -0.29166667       0.20833333       0.00000000 </v>
   <v>      -0.08333333       0.29166667       0.00000000 </v>
   <v>       0.20833333       0.08333333       0.00000000 </v>
   <v>      -0.20833333       0.29166667       0.00000000 </v>
   <v>      -0.29166667       0.08333333       0.00000000 </v>
   <v>      -0.08333333      -0.20833333       0.00000000 </v>
   <v>      -0.20833333       0.20833333       0.00000000 </v>
   <v>       0.00000000       0.20833333       0.00000000 </v>
   <v>       0.20833333       0.00000000       0.00000000 </v>
   <v>       0.29166667       0.29166667       0.00000000 </v>
   <v>      -0.41666667      -0.29166667       0.00000000 </v>
   <v>       0.29166667       0.41666667       0.00000000 </v>
   <v>       0.37500000       0.29166667       0.00000000 </v>
   <v>      -0.33333333      -0.37500000       0.00000000 </v>
   <v>       0.29166667       0.33333333       0.00000000 </v>
   <v>      -0.29166667      -0.37500000       0.00000000 </v>
   <v>       0.37500000       0.33333333       0.00000000 </v>
   <v>      -0.33333333      -0.29166667       0.00000000 </v>
   <v>       0.45833333       0.29166667       0.00000000 </v>
   <v>      -0.25000000      -0.45833333       0.00000000 </v>
   <v>       0.29166667       0.25000000       0.00000000 </v>
   <v>      -0.29166667      -0.45833333       0.00000000 </v>
   <v>       0.45833333       0.25000000       0.00000000 </v>
   <v>      -0.25000000      -0.29166667       0.00000000 </v>
   <v>      -0.45833333       0.29166667       0.00000000 </v>
   <v>      -0.16666667       0.45833333       0.00000000 </v>
   <v>       0.29166667       0.16666667       0.00000000 </v>
   <v>      -0.29166667       0.45833333       0.00000000 </v>
   <v>      -0.45833333       0.16666667       0.00000000 </v>
   <v>      -0.16666667      -0.29166667       0.00000000 </v>
   <v>      -0.37500000       0.29166667       0.00000000 </v>
   <v>      -0.08333333       0.37500000       0.00000000 </v>
   <v>       0.29166667       0.08333333       0.00000000 </v>
   <v>      -0.29166667       0.37500000       0.00000000 </v>
   <v>      -0.37500000       0.08333333       0.00000000 </v>
   <v>      -0.08333333      -0.29166667       0.00000000 </v>
   <v>      -0.29166667       0.29166667       0.00000000 </v>
   <v>       0.00000000       0.29166667       0.00000000 </v>
   <v>       0.29166667       0.00000000       0.00000000 </v>
   <v>       0.37500000       0.37500000       0.00000000 </v>
   <v>      -0.25000000      -0.37500000       0.00000000 </v>
   <v>       0.37500000       0.25000000       0.00000000 </v>
   <v>       0.45833333       0.37500000       0.00000000 </v>
   <v>      -0.16666667      -0.45833333       0.00000000 </v>
   <v>       0.37500000       0.16666667       0.00000000 </v>
   <v>      -0.37500000      -0.45833333       0.00000000 </v>
   <v>       0.45833333       0.16666667       0.00000000 </v>
   <v>      -0.16666667      -0.37500000       0.00000000 </v>
   <v>      -0.45833333       0.37500000       0.00000000 </v>
   <v>      -0.08333333       0.45833333       0.00000000 </v>
   <v>       0.37500000       0.08333333       0.00000000 </v>
   <v>      -0.37500000       0.45833333       0.00000000 </v>
   <v>      -0.45833333       0.08333333       0.00000000 </v>
   <v>      -0.08333333      -0.37500000       0.00000000 </v>
   <v>      -0.37500000       0.37500000       0.00000000 </v>
   <v>       0.00000000       0.37500000       0.00000000 </v>
   <v>       0.37500000       0.00000000       0.00000000 </v>
   <v>       0.45833333       0.45833333       0.00000000 </v>
   <v>      -0.08333333      -0.45833333       0.00000000 </v>
   <v>       0.45833333       0.08333333       0.00000000 </v>
   <v>      -0.45833333       0.45833333       0.00000000 </v>
   <v>       0.00000000       0.45833333       0.00000000 </v>
   <v>       0.45833333       0.00000000       0.00000000 </v>
  </varray>
  <varray name="weights" >
   <v>       0.00462963 </v>
   <v>       0.00462963 </v>
   <v>       0.00462963 </v>
   <v>       0.00462963 </v>
   <v>       0.00462963 </v>
   <v>       0.00462963 </v>
   <v>       0.00462963 </v>
   <v>       0.00462963 </v>
   <v>       0.00462963 </v>
   <v>       0.00462963 </v>
   <v>       0.00462963 </v>
   <v>       0.00462963 </v>
   <v>       0.00462963 </v>
   <v>       0.00462963 </v>
   <v>       0.00462963 </v>
   <v>       0.00462963 </v>
   <v>       0.00462963 </v>
   <v>       0.00462963 </v>
   <v>       0.00462963 </v>
   <v>       0.00462963 </v>
   <v>       0.00462963 </v>
   <v>       0.00462963 </v>
   <v>       0.00462963 </v>
   <v>       0.00462963 </v>
   <v>       0.00462963 </v>
   <v>       0.00462963 </v>
   <v>       0.00462963 </v>
   <v>       0.00462963 </v>
   <v>       0.00462963 </v>
   <v>       0.00462963 </v>
   <v>       0.00462963 </v>
   <v>       0.00462963 </v>
   <v>       0.00462963 </v>
   <v>       0.00462963 </v>
   <v>       0.00462963 </v>
   <v>       0.00462963 </v>
   <v>       0.00462963 </v>
   <v>       0.00462963 </v>
   <v>       0.00462963 </v>
   <v>       0.00462963 </v>
   <v>       0.00462963 </v>
   <v>       0.00462963 </v>
   <v>       0.00462963 </v>
   <v>       0.00462963 </v>
   <v>       0.00462963 </v>
   <v>       0.00462963 </v>
   <v>       0.00462963 </v>
   <v>       0.00462963 </v>
   <v>       0.00462963 </v>
   <v>       0.00462963 </v>
   <v>       0.00462963 </v>
   <v>       0.00462963 </v>
   <v>       0.00462963 </v>
   <v>       0.00462963 </v>
   <v>       0.00462963 </v>
   <v>       0.00462963 </v>
   <v>       0.00462963 </v>
   <v>       0.00462963 </v>
   <v>       0.00462963 </v>
   <v>       0.00462963 </v>
   <v>       0.00462963 </v>
   <v>       0.00462963 </v>
   <v>       0.00462963 </v>
   <v>       0.00462963 </v>
   <v>       0.00462963 </v>
   <v>       0.00462963 </v>
   <v>       0.00462963 </v>
   <v>       0.00462963 </v>
   <v>       0.00462963 </v>
   <v>       0.00462963 </v>
   <v>       0.00462963 </v>
   <v>       0.00462963 </v>
   <v>       0.00462963 </v>
   <v>       0.00462963 </v>
   <v>       0.00462963 </v>
   <v>       0.00462963 </v>
   <v>       0.00462963 </v>
   <v>       0.00462963 </v>
   <v>       0.00462963 </v>
   <v>       0.00462963 </v>
   <v>       0.00462963 </v>
   <v>       0.00462963 </v>
   <v>       0.00462963 </v>
   <v>       0.00462963 </v>
   <v>       0.00462963 </v>
   <v>       0.00462963 </v>
   <v>       0.00462963 </v>
   <v>       0.00462963 </v>
   <v>       0.00462963 </v>
   <v>       0.00462963 </v>
   <v>       0.00462963 </v>
   <v>       0.00462963 </v>
   <v>       0.00462963 </v>
   <v>       0.00462963 </v>
   <v>       0.00462963 </v>
   <v>       0.00462963 </v>
   <v>       0.00462963 </v>
   <v>       0.00462963 </v>
   <v>       0.00462963 </v>
   <v>       0.00462963 </v>
   <v>       0.00462963 </v>
   <v>       0.00462963 </v>
   <v>       0.00462963 </v>
   <v>       0.00462963 </v>
   <v>       0.00462963 </v>
   <v>       0.00462963 </v>
   <v>       0.00462963 </v>
   <v>       0.00462963 </v>
   <v>       0.00462963 </v>
   <v>       0.00462963 </v>
   <v>       0.00462963 </v>
   <v>       0.00462963 </v>
   <v>       0.00462963 </v>
   <v>       0.00462963 </v>
   <v>       0.00462963 </v>
   <v>       0.00462963 </v>
   <v>       0.00462963 </v>
   <v>       0.00462963 </v>
   <v>       0.00462963 </v>
   <v>       0.00462963 </v>
   <v>       0.00462963 </v>
   <v>       0.00462963 </v>
   <v>       0.00462963 </v>
   <v>       0.00462963 </v>
   <v>       0.00462963 </v>
   <v>       0.00462963 </v>
   <v>       0.00462963 </v>
   <v>       0.00462963 </v>
   <v>       0.00462963 </v>
   <v>       0.00462963 </v>
   <v>       0.00462963 </v>
   <v>       0.00462963 </v>
   <v>       0.00462963 </v>
   <v>       0.00462963 </v>
   <v>       0.00462963 </v>
   <v>       0.00462963 </v>
   <v>       0.00462963 </v>
   <v>       0.00462963 </v>
   <v>       0.00462963 </v>
   <v>       0.00462963 </v>
   <v>       0.00462963 </v>
   <v>       0.00462963 </v>
   <v>       0.00462963 </v>
   <v>       0.00462963 </v>
   <v>       0.00462963 </v>
   <v>       0.00462963 </v>
   <v>       0.00462963 </v>
   <v>       0.00462963 </v>
   <v>       0.00462963 </v>
   <v>       0.00462963 </v>
   <v>       0.00462963 </v>
   <v>       0.00462963 </v>
   <v>       0.00462963 </v>
   <v>       0.00462963 </v>
   <v>       0.00462963 </v>
   <v>       0.00462963 </v>
   <v>       0.00462963 </v>
   <v>       0.00462963 </v>
   <v>       0.00462963 </v>
   <v>       0.00462963 </v>
   <v>       0.00462963 </v>
   <v>       0.00462963 </v>
   <v>       0.00462963 </v>
   <v>       0.00462963 </v>
   <v>       0.00462963 </v>
   <v>       0.00462963 </v>
   <v>       0.00462963 </v>
   <v>       0.00462963 </v>
   <v>       0.00462963 </v>
   <v>       0.00462963 </v>
   <v>       0.00462963 </v>
   <v>       0.00462963 </v>
   <v>       0.00462963 </v>
   <v>       0.00462963 </v>
   <v>       0.00462963 </v>
   <v>       0.00462963 </v>
   <v>       0.00462963 </v>
   <v>       0.00462963 </v>
   <v>       0.00462963 </v>
   <v>       0.00462963 </v>
   <v>       0.00462963 </v>
   <v>       0.00462963 </v>
   <v>       0.00462963 </v>
   <v>       0.00462963 </v>
   <v>       0.00462963 </v>
   <v>       0.00462963 </v>
   <v>       0.00462963 </v>
   <v>       0.00462963 </v>
   <v>       0.00462963 </v>
   <v>       0.00462963 </v>
   <v>       0.00462963 </v>
   <v>       0.00462963 </v>
   <v>       0.00462963 </v>
   <v>       0.00462963 </v>
   <v>       0.00462963 </v>
   <v>       0.00462963 </v>
   <v>       0.00462963 </v>
   <v>       0.00462963 </v>
   <v>       0.00462963 </v>
   <v>       0.00462963 </v>
   <v>       0.00462963 </v>
   <v>       0.00462963 </v>
   <v>       0.00462963 </v>
   <v>       0.00462963 </v>
   <v>       0.00462963 </v>
   <v>       0.00462963 </v>
   <v>       0.00462963 </v>
   <v>       0.00462963 </v>
   <v>       0.00462963 </v>
   <v>       0.00462963 </v>
   <v>       0.00462963 </v>
   <v>       0.00462963 </v>
   <v>       0.00462963 </v>
   <v>       0.00462963 </v>
   <v>       0.00462963 </v>
   <v>       0.00462963 </v>
  </varray>
 </kpoints>
 <parameters>
  <separator name="general" >
   <i type="string" name="SYSTEM">unknown system</i>
   <i type="logical" name="LCOMPAT"> F  </i>
  </separator>
  <separator name="electronic" >
   <i type="string" name="PREC">accura</i>
   <i name="ENMAX">    500.00000000</i>
   <i name="ENAUG">    446.01400000</i>
   <i name="EDIFF">      0.00000001</i>
   <i type="int" name="IALGO">    38</i>
   <i type="int" name="IWAVPR">    10</i>
   <i type="int" name="NBANDS">   140</i>
   <i name="NELECT">    234.00000000</i>
   <i type="int" name="TURBO">     0</i>
   <i type="int" name="IRESTART">     0</i>
   <i type="int" name="NREBOOT">     0</i>
   <i type="int" name="NMIN">     0</i>
   <i name="EREF">      0.00000000</i>
   <separator name="electronic smearing" >
    <i type="int" name="ISMEAR">     0</i>
    <i name="SIGMA">      0.10000000</i>
    <i name="KSPACING">      0.50000000</i>
    <i type="logical" name="KGAMMA"> T  </i>
   </separator>
   <separator name="electronic projectors" >
    <i type="logical" name="LREAL"> F  </i>
    <v name="ROPT">      0.00000000      0.00000000</v>
    <i type="int" name="LMAXPAW">  -100</i>
    <i type="int" name="LMAXMIX">     2</i>
    <i type="logical" name="NLSPLINE"> F  </i>
   </separator>
   <separator name="electronic startup" >
    <i type="int" name="ISTART">     0</i>
    <i type="int" name="ICHARG">     2</i>
    <i type="int" name="INIWAV">     1</i>
   </separator>
   <separator name="electronic spin" >
    <i type="int" name="ISPIN">     1</i>
    <i type="logical" name="LNONCOLLINEAR"> F  </i>
    <v name="MAGMOM">      1.00000000      1.00000000      1.00000000      1.00000000      1.00000000      1.00000000      1.00000000      1.00000000      1.00000000      1.00000000      1.00000000      1.00000000      1.00000000      1.00000000      1.00000000      1.00000000      1.00000000      1.00000000      1.00000000      1.00000000
      1.00000000      1.00000000      1.00000000      1.00000000      1.00000000      1.00000000      1.00000000</v>
    <i name="NUPDOWN">     -1.00000000</i>
    <i type="logical" name="LSORBIT"> F  </i>
    <v name="SAXIS">      0.00000000      0.00000000      1.00000000</v>
    <i type="logical" name="LSPIRAL"> F  </i>
    <v name="QSPIRAL">      0.00000000      0.00000000      0.00000000</v>
    <i type="logical" name="LZEROZ"> F  </i>
   </separator>
   <separator name="electronic exchange-correlation" >
    <i type="logical" name="LASPH"> F  </i>
    <i type="logical" name="LMETAGGA"> F  </i>
   </separator>
   <separator name="electronic convergence" >
    <i type="int" name="NELM">    60</i>
    <i type="int" name="NELMDL">    -5</i>
    <i type="int" name="NELMIN">     2</i>
    <i name="ENINI">    500.00000000</i>
    <separator name="electronic convergence detail" >
     <i type="logical" name="LDIAG"> T  </i>
     <i type="logical" name="LSUBROT"> F  </i>
     <i name="WEIMIN">      0.00000000</i>
     <i name="EBREAK">      0.00000000</i>
     <i name="DEPER">      0.30000000</i>
     <i type="int" name="NRMM">     4</i>
     <i name="TIME">      0.40000000</i>
    </separator>
   </separator>
   <separator name="electronic mixer" >
    <i name="AMIX">      0.40000000</i>
    <i name="BMIX">      1.00000000</i>
    <i name="AMIN">      0.10000000</i>
    <i name="AMIX_MAG">      1.60000000</i>
    <i name="BMIX_MAG">      1.00000000</i>
    <separator name="electronic mixer details" >
     <i type="int" name="IMIX">     4</i>
     <i type="logical" name="MIXFIRST"> F  </i>
     <i type="int" name="MAXMIX">   -45</i>
     <i name="WC">    100.00000000</i>
     <i type="int" name="INIMIX">     1</i>
     <i type="int" name="MIXPRE">     1</i>
     <i type="int" name="MREMOVE">     5</i>
    </separator>
   </separator>
   <separator name="electronic dipolcorrection" >
    <i type="logical" name="LDIPOL"> F  </i>
    <i type="logical" name="LMONO"> F  </i>
    <i type="int" name="IDIPOL">     0</i>
    <i name="EPSILON">      1.00000000</i>
    <v name="DIPOL">   -100.00000000   -100.00000000   -100.00000000</v>
    <i name="EFIELD">      0.00000000</i>
   </separator>
  </separator>
  <separator name="grids" >
   <i type="int" name="NGX">    70</i>
   <i type="int" name="NGY">    70</i>
   <i type="int" name="NGZ">   112</i>
   <i type="int" name="NGXF">   140</i>
   <i type="int" name="NGYF">   140</i>
   <i type="int" name="NGZF">   224</i>
   <i type="logical" name="ADDGRID"> F  </i>
  </separator>
  <separator name="ionic" >
   <i type="int" name="NSW">     0</i>
   <i type="int" name="IBRION">    -1</i>
   <i type="int" name="MDALGO">     0</i>
   <i type="int" name="ISIF">     2</i>
   <i name="PSTRESS">      0.00000000</i>
   <i name="EDIFFG">      0.00000010</i>
   <i type="int" name="NFREE">     0</i>
   <i name="POTIM">      0.50000000</i>
   <i name="SMASS">     -3.00000000</i>
   <i name="SCALEE">      1.00000000</i>
  </separator>
  <separator name="ionic md" >
   <i name="TEBEG">      0.00010000</i>
   <i name="TEEND">      0.00010000</i>
   <i type="int" name="NBLOCK">     1</i>
   <i type="int" name="KBLOCK">     1</i>
   <i type="int" name="NPACO">   256</i>
   <i name="APACO">     16.00000000</i>
  </separator>
  <separator name="symmetry" >
   <i type="int" name="ISYM">     2</i>
   <i name="SYMPREC">      0.00001000</i>
  </separator>
  <separator name="dos" >
   <i type="int" name="LORBIT">     0</i>
   <v name="RWIGS">     -1.00000000     -1.00000000</v>
   <i type="int" name="NEDOS">   301</i>
   <i name="EMIN">     10.00000000</i>
   <i name="EMAX">    -10.00000000</i>
   <i name="EFERMI">      0.00000000</i>
  </separator>
  <separator name="writing" >
   <i type="int" name="NWRITE">     2</i>
   <i type="logical" name="LWAVE"> F  </i>
   <i type="logical" name="LDOWNSAMPLE"> F  </i>
   <i type="logical" name="LCHARG"> F  </i>
   <i type="logical" name="LPARD"> F  </i>
   <i type="logical" name="LVTOT"> F  </i>
   <i type="logical" name="LVHAR"> F  </i>
   <i type="logical" name="LELF"> F  </i>
   <i type="logical" name="LOPTICS"> F  </i>
   <v name="STM">      0.00000000      0.00000000      0.00000000      0.00000000      0.00000000      0.00000000      0.00000000</v>
  </separator>
  <separator name="performance" >
   <i type="int" name="NPAR">     2</i>
   <i type="int" name="NSIM">     4</i>
   <i type="int" name="NBLK">    -1</i>
   <i type="logical" name="LPLANE"> T  </i>
   <i type="logical" name="LSCALAPACK"> T  </i>
   <i type="logical" name="LSCAAWARE"> F  </i>
   <i type="logical" name="LSCALU"> F  </i>
   <i type="logical" name="LASYNC"> F  </i>
   <i type="logical" name="LORBITALREAL"> F  </i>
  </separator>
  <separator name="miscellaneous" >
   <i type="int" name="IDIOT">     3</i>
   <i type="int" name="ISPECIAL">     0</i>
   <i type="logical" name="LMUSIC"> F  </i>
   <v name="POMASS">     95.94000000     32.06600000</v>
   <v name="DARWINR">      0.00000000      0.00000000</v>
   <v name="DARWINV">      1.00000000      1.00000000</v>
   <i type="logical" name="LCORR"> T  </i>
  </separator>
  <i type="logical" name="GGA_COMPAT"> T  </i>
  <i type="logical" name="LBERRY"> F  </i>
  <i type="int" name="ICORELEVEL">     0</i>
  <i type="logical" name="LDAU"> F  </i>
  <i type="int" name="I_CONSTRAINED_M">     0</i>
  <separator name="electronic exchange-correlation" >
   <i type="string" name="GGA">--</i>
   <i type="int" name="VOSKOWN">     0</i>
   <i type="logical" name="LHFCALC"> F  </i>
   <i type="string" name="PRECFOCK"></i>
   <i type="logical" name="LSYMGRAD"> F  </i>
   <i type="logical" name="LHFONE"> F  </i>
   <i type="logical" name="LRHFCALC"> F  </i>
   <i type="logical" name="LTHOMAS"> F  </i>
   <i type="logical" name="LMODELHF"> F  </i>
   <i name="ENCUT4O">     -1.00000000</i>
   <i type="int" name="EXXOEP">     0</i>
   <i type="int" name="FOURORBIT">     0</i>
   <i name="AEXX">      0.00000000</i>
   <i name="HFALPHA">      0.00000000</i>
   <i name="MCALPHA">      0.00000000</i>
   <i name="ALDAX">      1.00000000</i>
   <i name="AGGAX">      1.00000000</i>
   <i name="ALDAC">      1.00000000</i>
   <i name="AGGAC">      1.00000000</i>
   <i type="int" name="NKREDX">     1</i>
   <i type="int" name="NKREDY">     1</i>
   <i type="int" name="NKREDZ">     1</i>
   <i type="logical" name="SHIFTRED"> F  </i>
   <i type="logical" name="ODDONLY"> F  </i>
   <i type="logical" name="EVENONLY"> F  </i>
   <i type="int" name="LMAXFOCK">     0</i>
   <i type="int" name="NMAXFOCKAE">     0</i>
   <i type="logical" name="LFOCKAEDFT"> F  </i>
   <i name="HFSCREEN">      0.00000000</i>
   <i name="HFSCREENC">      0.00000000</i>
   <i type="int" name="NBANDSGWLOW">     0</i>
  </separator>
  <separator name="vdW DFT" >
   <i type="logical" name="LUSE_VDW"> F  </i>
   <i name="Zab_VDW">     -0.84910000</i>
   <i name="PARAM1">      0.12340000</i>
   <i name="PARAM2">      1.00000000</i>
   <i name="PARAM3">      0.00000000</i>
  </separator>
  <separator name="model GW" >
   <i type="int" name="MODEL_GW">     0</i>
   <i name="MODEL_EPS0">     26.33661408</i>
   <i name="MODEL_ALPHA">      1.00000000</i>
  </separator>
  <separator name="linear response parameters" >
   <i type="logical" name="LEPSILON"> F  </i>
   <i type="logical" name="LRPA"> F  </i>
   <i type="logical" name="LNABLA"> F  </i>
   <i type="logical" name="LVEL"> F  </i>
   <i type="int" name="KINTER">     0</i>
   <i name="CSHIFT">      0.10000000</i>
   <i name="OMEGAMAX">     -1.00000000</i>
   <i name="DEG_THRESHOLD">      0.00200000</i>
   <i name="RTIME">     -0.10000000</i>
   <i name="WPLASMAI">      0.00000000</i>
   <v name="DFIELD">      0.00000000      0.00000000      0.00000000</v>
   <v name="WPLASMA">      0.00000000      0.00000000      0.00000000      0.00000000      0.00000000      0.00000000      0.00000000      0.00000000      0.00000000</v>
  </separator>
  <separator name="orbital magnetization" >
   <i type="logical" name="NUCIND"> F  </i>
   <v name="MAGPOS">      0.00000000      0.00000000      0.00000000</v>
   <i type="logical" name="LNICSALL"> T  </i>
   <i type="logical" name="ORBITALMAG"> F  </i>
   <i type="logical" name="LMAGBLOCH"> F  </i>
   <i type="logical" name="LCHIMAG"> F  </i>
   <i type="logical" name="LGAUGE"> T  </i>
   <i type="int" name="MAGATOM">     0</i>
   <v name="MAGDIPOL">      0.00000000      0.00000000      0.00000000</v>
   <v name="AVECCONST">      0.00000000      0.00000000      0.00000000</v>
  </separator>
  <separator name="response functions" >
   <i type="logical" name="LADDER"> F  </i>
   <i type="logical" name="LRPAFORCE"> F  </i>
   <i type="logical" name="LFXC"> F  </i>
   <i type="logical" name="LHARTREE"> T  </i>
   <i type="int" name="IBSE">     0</i>
   <v type="int" name="KPOINT">    -1     0     0     0</v>
   <i type="logical" name="LTCTE"> F  </i>
   <i type="logical" name="LTETE"> F  </i>
   <i type="logical" name="LTRIPLET"> F  </i>
   <i type="logical" name="LFXCEPS"> F  </i>
   <i type="logical" name="LFXHEG"> F  </i>
   <i type="int" name="NATURALO">     2</i>
   <i type="logical" name="L2ORDER"> F  </i>
   <i type="logical" name="LMP2LT"> F  </i>
   <i type="logical" name="LUSEW"> F  </i>
   <i name="ENCUTGW">     -2.00000000</i>
   <i name="ENCUTGWSOFT">     -2.00000000</i>
   <i name="ENCUTLF">     -1.00000000</i>
   <i type="int" name="LMAXMP2">    -1</i>
   <i name="SCISSOR">      0.00000000</i>
   <i type="int" name="NOMEGA">     0</i>
   <i type="int" name="NOMEGAR">     0</i>
   <i type="int" name="NBANDSGW">    -1</i>
   <i type="int" name="NBANDSO">    -1</i>
   <i type="int" name="NBANDSV">    -1</i>
   <i type="int" name="NELM">     1</i>
   <i type="int" name="NELMHF">     1</i>
   <i type="int" name="DIM">     3</i>
   <i type="int" name="ANTIRES">     0</i>
   <i name="OMEGAMAX">    -30.00000000</i>
   <i name="OMEGAMIN">    -30.00000000</i>
   <i name="OMEGATL">   -200.00000000</i>
   <i type="int" name="OMEGAGRID">   140</i>
   <i name="CSHIFT">     -0.10000000</i>
   <i type="logical" name="SELFENERGY"> F  </i>
   <i type="logical" name="LSPECTRAL"> F  </i>
   <i type="logical" name="LSPECTRALGW"> F  </i>
   <i type="logical" name="LSINGLES"> F  </i>
   <i type="logical" name="LFERMIGW"> F  </i>
   <i type="logical" name="ODDONLYGW"> F  </i>
   <i type="logical" name="EVENONLYGW"> F  </i>
   <i type="int" name="NKREDLFX">     1</i>
   <i type="int" name="NKREDLFY">     1</i>
   <i type="int" name="NKREDLFZ">     1</i>
   <i type="int" name="MAXMEM">  2800</i>
   <i type="int" name="TELESCOPE">     0</i>
   <i type="int" name="TAUPAR">     1</i>
   <i type="int" name="OMEGAPAR">    -1</i>
   <i name="LAMBDA">      1.00000000</i>
  </separator>
  <separator name="External order field" >
   <i name="OFIELD_KAPPA">      0.00000000</i>
   <v name="OFIELD_K">      0.00000000      0.00000000      0.00000000</v>
   <i name="OFIELD_Q6_NEAR">      0.00000000</i>
   <i name="OFIELD_Q6_FAR">      0.00000000</i>
   <i name="OFIELD_A">      0.00000000</i>
  </separator>
 </parameters>
 <atominfo>
  <atoms>      27 </atoms>
  <types>       2 </types>
  <array name="atoms" >
   <dimension dim="1">ion</dimension>
   <field type="string">element</field>
   <field type="int">atomtype</field>
   <set>
    <rc><c>Mo</c><c>   1</c></rc>
    <rc><c>Mo</c><c>   1</c></rc>
    <rc><c>Mo</c><c>   1</c></rc>
    <rc><c>Mo</c><c>   1</c></rc>
    <rc><c>Mo</c><c>   1</c></rc>
    <rc><c>Mo</c><c>   1</c></rc>
    <rc><c>Mo</c><c>   1</c></rc>
    <rc><c>Mo</c><c>   1</c></rc>
    <rc><c>Mo</c><c>   1</c></rc>
    <rc><c>S </c><c>   2</c></rc>
    <rc><c>S </c><c>   2</c></rc>
    <rc><c>S </c><c>   2</c></rc>
    <rc><c>S </c><c>   2</c></rc>
    <rc><c>S </c><c>   2</c></rc>
    <rc><c>S </c><c>   2</c></rc>
    <rc><c>S </c><c>   2</c></rc>
    <rc><c>S </c><c>   2</c></rc>
    <rc><c>S </c><c>   2</c></rc>
    <rc><c>S </c><c>   2</c></rc>
    <rc><c>S </c><c>   2</c></rc>
    <rc><c>S </c><c>   2</c></rc>
    <rc><c>S </c><c>   2</c></rc>
    <rc><c>S </c><c>   2</c></rc>
    <rc><c>S </c><c>   2</c></rc>
    <rc><c>S </c><c>   2</c></rc>
    <rc><c>S </c><c>   2</c></rc>
    <rc><c>S </c><c>   2</c></rc>
   </set>
  </array>
  <array name="atomtypes" >
   <dimension dim="1">type</dimension>
   <field type="int">atomspertype</field>
   <field type="string">element</field>
   <field>mass</field>
   <field>valence</field>
   <field type="string">pseudopotential</field>
   <set>
    <rc><c>   9</c><c>Mo</c><c>     95.94000000</c><c>     14.00000000</c><c>  PAW_PBE Mo_sv 02Feb2006               </c></rc>
    <rc><c>  18</c><c>S </c><c>     32.06600000</c><c>      6.00000000</c><c>  PAW_PBE S 06Sep2000                   </c></rc>
   </set>
  </array>
 </atominfo>
 <structure name="initialpos" >
  <crystal>
   <varray name="basis" >
    <v>       9.55158141       0.00000000       0.00000000 </v>
    <v>      -4.77579070       8.27191214       0.00000000 </v>
    <v>       0.00000000       0.00000000      15.00000000 </v>
   </varray>
   <i name="volume">   1185.14763341 </i>
   <varray name="rec_basis" >
    <v>       0.10469471       0.06044552       0.00000000 </v>
    <v>       0.00000000       0.12089103       0.00000000 </v>
    <v>       0.00000000       0.00000000       0.06666667 </v>
   </varray>
  </crystal>
  <varray name="positions" >
   <v>       0.22222223       0.11111111       0.25000000 </v>
   <v>       0.55555556       0.11111111       0.25000000 </v>
   <v>       0.88888890       0.11111111       0.25000000 </v>
   <v>       0.22222223       0.44444445       0.25000000 </v>
   <v>       0.55555556       0.44444445       0.25000000 </v>
   <v>       0.88888890       0.44444445       0.25000000 </v>
   <v>       0.22222223       0.77777778       0.25000000 </v>
   <v>       0.55555556       0.77777778       0.25000000 </v>
   <v>       0.88888890       0.77777778       0.25000000 </v>
   <v>       0.11054878       0.22222223       0.35358979 </v>
   <v>       0.44444445       0.22222223       0.35415213 </v>
   <v>       0.77777778       0.22222223       0.35415213 </v>
   <v>       0.11111111       0.55555556       0.35415213 </v>
   <v>       0.44444445       0.55555556       0.35415213 </v>
   <v>       0.77777778       0.55555556       0.35415213 </v>
   <v>       0.11111111       0.88888890       0.35415213 </v>
   <v>       0.44444445       0.88888890       0.35415213 </v>
   <v>       0.77777778       0.88888890       0.35415213 </v>
   <v>       0.11111111       0.22222223       0.14584787 </v>
   <v>       0.44444445       0.22222223       0.14584787 </v>
   <v>       0.77777778       0.22222223       0.14584787 </v>
   <v>       0.11111111       0.55555556       0.14584787 </v>
   <v>       0.44444445       0.55555556       0.14584787 </v>
   <v>       0.77777778       0.55555556       0.14584787 </v>
   <v>       0.11111111       0.88888890       0.14584787 </v>
   <v>       0.44444445       0.88888890       0.14584787 </v>
   <v>       0.77777778       0.88888890       0.14584787 </v>
  </varray>
 </structure>
 <calculation>
  <scstep>
   <time name="dav">  362.12  362.14</time>
   <time name="total">  362.41  362.63</time>
   <energy>
    <i name="alphaZ">    323.32137470 </i>
    <i name="ewald">  24798.36452220 </i>
    <i name="hartreedc"> -44149.99493471 </i>
    <i name="XCdc">    822.29027760 </i>
    <i name="pawpsdc">  17395.10119161 </i>
    <i name="pawaedc"> -17171.31696658 </i>
    <i name="eentropy">     -0.05730060 </i>
    <i name="bandstr">  -1774.70631533 </i>
    <i name="atom">  21743.29182934 </i>
    <i name="e_fr_energy">   1986.29367822 </i>
    <i name="e_wo_entrp">   1986.35097882 </i>
    <i name="e_0_energy">   1986.32232852 </i>
   </energy>
  </scstep>
  <scstep>
   <time name="dav">  368.48  368.50</time>
   <time name="total">  368.50  368.52</time>
   <energy>
    <i name="e_fr_energy">    -29.88418628 </i>
    <i name="e_wo_entrp">    -29.88418628 </i>
    <i name="e_0_energy">    -29.88418628 </i>
   </energy>
  </scstep>
  <scstep>
   <time name="dav">  339.99  340.01</time>
   <time name="total">  340.01  340.02</time>
   <energy>
    <i name="e_fr_energy">   -202.62378932 </i>
    <i name="e_wo_entrp">   -202.62378932 </i>
    <i name="e_0_energy">   -202.62378932 </i>
   </energy>
  </scstep>
  <scstep>
   <time name="dav">  378.62  378.63</time>
   <time name="total">  378.63  378.65</time>
   <energy>
    <i name="e_fr_energy">   -210.16962986 </i>
    <i name="e_wo_entrp">   -210.16962986 </i>
    <i name="e_0_energy">   -210.16962986 </i>
   </energy>
  </scstep>
  <scstep>
   <time name="dav">  394.33  394.35</time>
   <time name="total">  404.28  404.30</time>
   <energy>
    <i name="e_fr_energy">   -210.38970159 </i>
    <i name="e_wo_entrp">   -210.38970159 </i>
    <i name="e_0_energy">   -210.38970159 </i>
   </energy>
  </scstep>
  <scstep>
   <time name="dav">  332.56  332.58</time>
   <time name="total">  342.53  342.54</time>
   <energy>
    <i name="e_fr_energy">   -200.17822598 </i>
    <i name="e_wo_entrp">   -200.17822598 </i>
    <i name="e_0_energy">   -200.17822598 </i>
   </energy>
  </scstep>
  <scstep>
   <time name="dav">  332.16  332.18</time>
   <time name="total">  342.13  342.14</time>
   <energy>
    <i name="e_fr_energy">   -198.05232689 </i>
    <i name="e_wo_entrp">   -198.05232689 </i>
    <i name="e_0_energy">   -198.05232689 </i>
   </energy>
  </scstep>
  <scstep>
   <time name="dav">  353.10  353.11</time>
   <time name="total">  363.06  363.08</time>
   <energy>
    <i name="e_fr_energy">   -196.63822574 </i>
    <i name="e_wo_entrp">   -196.63822574 </i>
    <i name="e_0_energy">   -196.63822574 </i>
   </energy>
  </scstep>
  <scstep>
   <time name="dav">  379.01  379.02</time>
   <time name="total">  388.99  389.01</time>
   <energy>
    <i name="e_fr_energy">   -196.67897045 </i>
    <i name="e_wo_entrp">   -196.67897045 </i>
    <i name="e_0_energy">   -196.67897045 </i>
   </energy>
  </scstep>
  <scstep>
   <time name="dav">  357.22  357.24</time>
   <time name="total">  367.21  367.23</time>
   <energy>
    <i name="e_fr_energy">   -196.62785136 </i>
    <i name="e_wo_entrp">   -196.62785136 </i>
    <i name="e_0_energy">   -196.62785136 </i>
   </energy>
  </scstep>
  <scstep>
   <time name="dav">  387.33  387.34</time>
   <time name="total">  397.43  397.45</time>
   <energy>
    <i name="e_fr_energy">   -196.62223201 </i>
    <i name="e_wo_entrp">   -196.62223201 </i>
    <i name="e_0_energy">   -196.62223201 </i>
   </energy>
  </scstep>
  <scstep>
   <time name="dav">  379.00  379.02</time>
   <time name="total">  389.09  389.11</time>
   <energy>
    <i name="e_fr_energy">   -196.61771908 </i>
    <i name="e_wo_entrp">   -196.61771908 </i>
    <i name="e_0_energy">   -196.61771908 </i>
   </energy>
  </scstep>
  <scstep>
   <time name="dav">  358.96  358.97</time>
   <time name="total">  368.92  368.94</time>
   <energy>
    <i name="e_fr_energy">   -196.61698674 </i>
    <i name="e_wo_entrp">   -196.61698674 </i>
    <i name="e_0_energy">   -196.61698674 </i>
   </energy>
  </scstep>
  <scstep>
   <time name="dav">  349.64  349.65</time>
   <time name="total">  359.59  359.61</time>
   <energy>
    <i name="e_fr_energy">   -196.61573553 </i>
    <i name="e_wo_entrp">   -196.61573553 </i>
    <i name="e_0_energy">   -196.61573553 </i>
   </energy>
  </scstep>
  <scstep>
   <time name="dav">  342.75  342.76</time>
   <time name="total">  352.66  352.68</time>
   <energy>
    <i name="e_fr_energy">   -196.61507094 </i>
    <i name="e_wo_entrp">   -196.61507094 </i>
    <i name="e_0_energy">   -196.61507094 </i>
   </energy>
  </scstep>
  <scstep>
   <time name="dav">  348.62  348.63</time>
   <time name="total">  358.45  358.47</time>
   <energy>
    <i name="e_fr_energy">   -196.61564194 </i>
    <i name="e_wo_entrp">   -196.61564194 </i>
    <i name="e_0_energy">   -196.61564194 </i>
   </energy>
  </scstep>
  <scstep>
   <time name="dav">  353.90  353.92</time>
   <time name="total">  363.75  363.77</time>
   <energy>
    <i name="e_fr_energy">   -196.61655635 </i>
    <i name="e_wo_entrp">   -196.61655635 </i>
    <i name="e_0_energy">   -196.61655635 </i>
   </energy>
  </scstep>
  <scstep>
   <time name="dav">  349.75  349.76</time>
   <time name="total">  359.60  359.61</time>
   <energy>
    <i name="e_fr_energy">   -196.61730803 </i>
    <i name="e_wo_entrp">   -196.61730803 </i>
    <i name="e_0_energy">   -196.61730803 </i>
   </energy>
  </scstep>
  <scstep>
   <time name="dav">  367.99  368.02</time>
   <time name="total">  377.80  377.83</time>
   <energy>
    <i name="e_fr_energy">   -196.61773623 </i>
    <i name="e_wo_entrp">   -196.61773623 </i>
    <i name="e_0_energy">   -196.61773623 </i>
   </energy>
  </scstep>
  <scstep>
   <time name="dav">  350.19  350.20</time>
   <time name="total">  360.00  360.02</time>
   <energy>
    <i name="e_fr_energy">   -196.61812288 </i>
    <i name="e_wo_entrp">   -196.61812288 </i>
    <i name="e_0_energy">   -196.61812288 </i>
   </energy>
  </scstep>
  <scstep>
   <time name="dav">  361.04  361.05</time>
   <time name="total">  370.90  370.92</time>
   <energy>
    <i name="e_fr_energy">   -196.61826539 </i>
    <i name="e_wo_entrp">   -196.61826539 </i>
    <i name="e_0_energy">   -196.61826539 </i>
   </energy>
  </scstep>
  <scstep>
   <time name="dav">  352.94  352.95</time>
   <time name="total">  362.81  362.83</time>
   <energy>
    <i name="e_fr_energy">   -196.61830420 </i>
    <i name="e_wo_entrp">   -196.61830420 </i>
    <i name="e_0_energy">   -196.61830420 </i>
   </energy>
  </scstep>
  <scstep>
   <time name="dav">  336.04  336.05</time>
   <time name="total">  345.90  345.92</time>
   <energy>
    <i name="e_fr_energy">   -196.61834447 </i>
    <i name="e_wo_entrp">   -196.61834447 </i>
    <i name="e_0_energy">   -196.61834447 </i>
   </energy>
  </scstep>
  <scstep>
   <time name="dav">  364.60  364.61</time>
   <time name="total">  374.46  374.48</time>
   <energy>
    <i name="e_fr_energy">   -196.61835436 </i>
    <i name="e_wo_entrp">   -196.61835436 </i>
    <i name="e_0_energy">   -196.61835436 </i>
   </energy>
  </scstep>
  <scstep>
   <time name="dav">  274.20  274.21</time>
   <time name="total">  284.06  284.07</time>
   <energy>
    <i name="e_fr_energy">   -196.61835680 </i>
    <i name="e_wo_entrp">   -196.61835680 </i>
    <i name="e_0_energy">   -196.61835680 </i>
   </energy>
  </scstep>
  <scstep>
   <time name="dav">  271.73  271.74</time>
   <time name="total">  281.66  281.67</time>
   <energy>
    <i name="e_fr_energy">   -196.61835755 </i>
    <i name="e_wo_entrp">   -196.61835755 </i>
    <i name="e_0_energy">   -196.61835755 </i>
   </energy>
  </scstep>
  <scstep>
   <time name="dav">  251.80  251.81</time>
   <time name="total">  261.73  261.87</time>
   <energy>
    <i name="e_fr_energy">   -196.61835792 </i>
    <i name="e_wo_entrp">   -196.61835792 </i>
    <i name="e_0_energy">   -196.61835792 </i>
   </energy>
  </scstep>
  <scstep>
   <time name="dav">  259.60  259.61</time>
   <time name="total">  269.53  269.54</time>
   <energy>
    <i name="e_fr_energy">   -196.61835796 </i>
    <i name="e_wo_entrp">   -196.61835796 </i>
    <i name="e_0_energy">   -196.61835796 </i>
   </energy>
  </scstep>
  <scstep>
   <time name="dav">  239.10  239.10</time>
   <time name="total">  249.02  249.03</time>
   <energy>
    <i name="e_fr_energy">   -196.61835798 </i>
    <i name="e_wo_entrp">   -196.61835798 </i>
    <i name="e_0_energy">   -196.61835798 </i>
   </energy>
  </scstep>
  <scstep>
   <time name="dav">  229.89  229.90</time>
   <time name="total">  230.15  230.16</time>
   <energy>
    <i name="alphaZ">    323.32137470 </i>
    <i name="ewald">  24798.36452220 </i>
    <i name="hartreedc"> -44101.53056912 </i>
    <i name="XCdc">    817.19725752 </i>
    <i name="pawpsdc">  26326.85731961 </i>
    <i name="pawaedc"> -26137.64209045 </i>
    <i name="eentropy">     -0.00000000 </i>
    <i name="bandstr">  -3966.47800178 </i>
    <i name="atom">  21743.29182934 </i>
    <i name="e_fr_energy">   -196.61835798 </i>
    <i name="e_wo_entrp">   -196.61835798 </i>
    <i name="e_0_energy">   -196.61835798 </i>
   </energy>
  </scstep>
  <structure>
   <crystal>
    <varray name="basis" >
     <v>       9.55158141       0.00000000       0.00000000 </v>
     <v>      -4.77579070       8.27191214       0.00000000 </v>
     <v>       0.00000000       0.00000000      15.00000000 </v>
    </varray>
    <i name="volume">   1185.14763341 </i>
    <varray name="rec_basis" >
     <v>       0.10469471       0.06044552       0.00000000 </v>
     <v>       0.00000000       0.12089103       0.00000000 </v>
     <v>       0.00000000       0.00000000       0.06666667 </v>
    </varray>
   </crystal>
   <varray name="positions" >
    <v>       0.22222223       0.11111111       0.25000000 </v>
    <v>       0.55555556       0.11111111       0.25000000 </v>
    <v>       0.88888890       0.11111111       0.25000000 </v>
    <v>       0.22222223       0.44444445       0.25000000 </v>
    <v>       0.55555556       0.44444445       0.25000000 </v>
    <v>       0.88888890       0.44444445       0.25000000 </v>
    <v>       0.22222223       0.77777778       0.25000000 </v>
    <v>       0.55555556       0.77777778       0.25000000 </v>
    <v>       0.88888890       0.77777778       0.25000000 </v>
    <v>       0.11054878       0.22222223       0.35358979 </v>
    <v>       0.44444445       0.22222223       0.35415213 </v>
    <v>       0.77777778       0.22222223       0.35415213 </v>
    <v>       0.11111111       0.55555556       0.35415213 </v>
    <v>       0.44444445       0.55555556       0.35415213 </v>
    <v>       0.77777778       0.55555556       0.35415213 </v>
    <v>       0.11111111       0.88888890       0.35415213 </v>
    <v>       0.44444445       0.88888890       0.35415213 </v>
    <v>       0.77777778       0.88888890       0.35415213 </v>
    <v>       0.11111111       0.22222223       0.14584787 </v>
    <v>       0.44444445       0.22222223       0.14584787 </v>
    <v>       0.77777778       0.22222223       0.14584787 </v>
    <v>       0.11111111       0.55555556       0.14584787 </v>
    <v>       0.44444445       0.55555556       0.14584787 </v>
    <v>       0.77777778       0.55555556       0.14584787 </v>
    <v>       0.11111111       0.88888890       0.14584787 </v>
    <v>       0.44444445       0.88888890       0.14584787 </v>
    <v>       0.77777778       0.88888890       0.14584787 </v>
   </varray>
  </structure>
  <varray name="forces" >
   <v>       0.00121318      -0.00589940      -0.02257932 </v>
   <v>      -0.00070770       0.00040263      -0.00148620 </v>
   <v>      -0.04693286      -0.02211620      -0.05526419 </v>
   <v>      -0.00881621       0.02731298      -0.03875722 </v>
   <v>       0.00052284      -0.00155737      -0.00093652 </v>
   <v>      -0.00106896       0.00156700      -0.00260766 </v>
   <v>      -0.00059876       0.00048440      -0.00151339 </v>
   <v>       0.00003554      -0.00000736      -0.00146066 </v>
   <v>       0.00243302      -0.00034631      -0.00176893 </v>
   <v>       0.06015992       0.00020055       0.12019364 </v>
   <v>      -0.00425012       0.00047576       0.00404356 </v>
   <v>      -0.00287208       0.00008975       0.00302675 </v>
   <v>      -0.00033494       0.00110103       0.00323394 </v>
   <v>      -0.00065274      -0.00282351       0.00399055 </v>
   <v>       0.00028743      -0.00012940      -0.00017226 </v>
   <v>      -0.00109251       0.00217545       0.00376535 </v>
   <v>       0.00028382       0.00007693      -0.00010417 </v>
   <v>       0.00010224      -0.00098132       0.00350463 </v>
   <v>       0.00155209       0.00000741      -0.01502700 </v>
   <v>       0.00070355       0.00055061       0.00070842 </v>
   <v>      -0.00246133       0.00191612      -0.00118694 </v>
   <v>      -0.00113448       0.00085866      -0.00012490 </v>
   <v>       0.00249529       0.00044054      -0.00049009 </v>
   <v>      -0.00010647      -0.00012765       0.00087777 </v>
   <v>       0.00039568      -0.00028677       0.00079189 </v>
   <v>      -0.00010589       0.00007693       0.00081107 </v>
   <v>       0.00095045      -0.00346145      -0.00146811 </v>
  </varray>
  <varray name="stress" >
   <v>       0.08702426       0.02308557       0.10344837 </v>
   <v>       0.02308560       0.08701339       0.00043652 </v>
   <v>       0.10344836       0.00043651       0.03915945 </v>
  </varray>
  <energy>
   <i name="e_fr_energy">   -196.61835798 </i>
   <i name="e_wo_entrp">   -196.61835798 </i>
   <i name="e_0_energy">     -0.00000000 </i>
  </energy>
  <time name="totalsc">10603.0210604.16</time>
  <eigenvalues>
   <array>
    <dimension dim="1">band</dimension>
    <dimension dim="2">kpoint</dimension>
    <dimension dim="3">spin</dimension>
    <field>eigene</field>
    <field>occ</field>
    <set>
     <set comment="spin 1">
      <set comment="kpoint 1">
       <r>  -61.6039    1.0000 </r>
       <r>  -61.5786    1.0000 </r>
       <r>  -61.5781    1.0000 </r>
       <r>  -61.5763    1.0000 </r>
       <r>  -61.5758    1.0000 </r>
       <r>  -61.5743    1.0000 </r>
       <r>  -61.5738    1.0000 </r>
       <r>  -61.5623    1.0000 </r>
       <r>  -61.5622    1.0000 </r>
       <r>  -35.8378    1.0000 </r>
       <r>  -35.8374    1.0000 </r>
       <r>  -35.8224    1.0000 </r>
       <r>  -35.8214    1.0000 </r>
       <r>  -35.8180    1.0000 </r>
       <r>  -35.8175    1.0000 </r>
       <r>  -35.7968    1.0000 </r>
       <r>  -35.7964    1.0000 </r>
       <r>  -35.7694    1.0000 </r>
       <r>  -35.7690    1.0000 </r>
       <r>  -35.7429    1.0000 </r>
       <r>  -35.6922    1.0000 </r>
       <r>  -35.6919    1.0000 </r>
       <r>  -35.6876    1.0000 </r>
       <r>  -35.6874    1.0000 </r>
       <r>  -35.6837    1.0000 </r>
       <r>  -35.6835    1.0000 </r>
       <r>  -35.6601    1.0000 </r>
       <r>  -35.6599    1.0000 </r>
       <r>  -35.6090    1.0000 </r>
       <r>  -35.6085    1.0000 </r>
       <r>  -35.6053    1.0000 </r>
       <r>  -35.6051    1.0000 </r>
       <r>  -35.5993    1.0000 </r>
       <r>  -35.5988    1.0000 </r>
       <r>  -35.5416    1.0000 </r>
       <r>  -35.5399    1.0000 </r>
       <r>  -14.7984    1.0000 </r>
       <r>  -13.6222    1.0000 </r>
       <r>  -13.6192    1.0000 </r>
       <r>  -13.5014    1.0000 </r>
       <r>  -13.4992    1.0000 </r>
       <r>  -13.4963    1.0000 </r>
       <r>  -13.3896    1.0000 </r>
       <r>  -13.3869    1.0000 </r>
       <r>  -13.0236    1.0000 </r>
       <r>  -13.0222    1.0000 </r>
       <r>  -12.9743    1.0000 </r>
       <r>  -12.9735    1.0000 </r>
       <r>  -12.9324    1.0000 </r>
       <r>  -12.9309    1.0000 </r>
       <r>  -12.6864    1.0000 </r>
       <r>  -12.6832    1.0000 </r>
       <r>  -12.6092    1.0000 </r>
       <r>  -12.6074    1.0000 </r>
       <r>   -6.3292    1.0000 </r>
       <r>   -6.1111    1.0000 </r>
       <r>   -6.1094    1.0000 </r>
       <r>   -6.0561    1.0000 </r>
       <r>   -6.0538    1.0000 </r>
       <r>   -5.9518    1.0000 </r>
       <r>   -5.9503    1.0000 </r>
       <r>   -5.8630    1.0000 </r>
       <r>   -5.8602    1.0000 </r>
       <r>   -5.3734    1.0000 </r>
       <r>   -5.3698    1.0000 </r>
       <r>   -5.0300    1.0000 </r>
       <r>   -5.0286    1.0000 </r>
       <r>   -4.9013    1.0000 </r>
       <r>   -4.8993    1.0000 </r>
       <r>   -4.7587    1.0000 </r>
       <r>   -4.7565    1.0000 </r>
       <r>   -4.7313    1.0000 </r>
       <r>   -4.7236    1.0000 </r>
       <r>   -4.6420    1.0000 </r>
       <r>   -4.6411    1.0000 </r>
       <r>   -4.6263    1.0000 </r>
       <r>   -4.6252    1.0000 </r>
       <r>   -4.6216    1.0000 </r>
       <r>   -4.6209    1.0000 </r>
       <r>   -4.2723    1.0000 </r>
       <r>   -4.2631    1.0000 </r>
       <r>   -3.6544    1.0000 </r>
       <r>   -3.6530    1.0000 </r>
       <r>   -3.6160    1.0000 </r>
       <r>   -3.6125    1.0000 </r>
       <r>   -3.6065    1.0000 </r>
       <r>   -3.6020    1.0000 </r>
       <r>   -3.5044    1.0000 </r>
       <r>   -3.5032    1.0000 </r>
       <r>   -3.3613    1.0000 </r>
       <r>   -3.3326    1.0000 </r>
       <r>   -2.8681    1.0000 </r>
       <r>   -2.8655    1.0000 </r>
       <r>   -2.5833    1.0000 </r>
       <r>   -2.4101    1.0000 </r>
       <r>   -2.4086    1.0000 </r>
       <r>   -2.3336    1.0000 </r>
       <r>   -2.3305    1.0000 </r>
       <r>   -2.2817    1.0000 </r>
       <r>   -2.2799    1.0000 </r>
       <r>   -2.2519    1.0000 </r>
       <r>   -2.2091    1.0000 </r>
       <r>   -2.2069    1.0000 </r>
       <r>   -2.1695    1.0000 </r>
       <r>   -2.1505    1.0000 </r>
       <r>   -2.1476    1.0000 </r>
       <r>   -2.0304    1.0000 </r>
       <r>   -2.0292    1.0000 </r>
       <r>   -1.6774    1.0000 </r>
       <r>   -1.6758    1.0000 </r>
       <r>   -1.6734    1.0000 </r>
       <r>   -1.6725    1.0000 </r>
       <r>   -1.6712    1.0000 </r>
       <r>   -1.6696    1.0000 </r>
       <r>   -0.7714    1.0000 </r>
       <r>   -0.7692    1.0000 </r>
       <r>   -0.7374    1.0000 </r>
       <r>    0.9553    0.0000 </r>
       <r>    0.9567    0.0000 </r>
       <r>    1.4507    0.0000 </r>
       <r>    1.4523    0.0000 </r>
       <r>    1.4630    0.0000 </r>
       <r>    1.4638    0.0000 </r>
       <r>    1.4803    0.0000 </r>
       <r>    1.4819    0.0000 </r>
       <r>    1.5649    0.0000 </r>
       <r>    1.5676    0.0000 </r>
       <r>    1.6320    0.0000 </r>
       <r>    1.6328    0.0000 </r>
       <r>    1.6736    0.0000 </r>
       <r>    1.6756    0.0000 </r>
       <r>    2.0103    0.0000 </r>
       <r>    2.0382    0.0000 </r>
       <r>    2.2444    0.0000 </r>
       <r>    2.2622    0.0000 </r>
       <r>    2.3415    0.0000 </r>
       <r>    2.3443    0.0000 </r>
       <r>    2.5343    0.0000 </r>
       <r>    2.5366    0.0000 </r>
       <r>    2.6361    0.0000 </r>
      </set>
      <set comment="kpoint 2">
       <r>  -61.6039    1.0000 </r>
       <r>  -61.5786    1.0000 </r>
       <r>  -61.5781    1.0000 </r>
       <r>  -61.5763    1.0000 </r>
       <r>  -61.5758    1.0000 </r>
       <r>  -61.5743    1.0000 </r>
       <r>  -61.5738    1.0000 </r>
       <r>  -61.5623    1.0000 </r>
       <r>  -61.5622    1.0000 </r>
       <r>  -35.8378    1.0000 </r>
       <r>  -35.8374    1.0000 </r>
       <r>  -35.8224    1.0000 </r>
       <r>  -35.8214    1.0000 </r>
       <r>  -35.8180    1.0000 </r>
       <r>  -35.8175    1.0000 </r>
       <r>  -35.7967    1.0000 </r>
       <r>  -35.7964    1.0000 </r>
       <r>  -35.7694    1.0000 </r>
       <r>  -35.7690    1.0000 </r>
       <r>  -35.7429    1.0000 </r>
       <r>  -35.6922    1.0000 </r>
       <r>  -35.6919    1.0000 </r>
       <r>  -35.6877    1.0000 </r>
       <r>  -35.6873    1.0000 </r>
       <r>  -35.6838    1.0000 </r>
       <r>  -35.6834    1.0000 </r>
       <r>  -35.6601    1.0000 </r>
       <r>  -35.6599    1.0000 </r>
       <r>  -35.6089    1.0000 </r>
       <r>  -35.6086    1.0000 </r>
       <r>  -35.6053    1.0000 </r>
       <r>  -35.6051    1.0000 </r>
       <r>  -35.5993    1.0000 </r>
       <r>  -35.5989    1.0000 </r>
       <r>  -35.5416    1.0000 </r>
       <r>  -35.5399    1.0000 </r>
       <r>  -14.7984    1.0000 </r>
       <r>  -13.6223    1.0000 </r>
       <r>  -13.6193    1.0000 </r>
       <r>  -13.5011    1.0000 </r>
       <r>  -13.4990    1.0000 </r>
       <r>  -13.4965    1.0000 </r>
       <r>  -13.3897    1.0000 </r>
       <r>  -13.3869    1.0000 </r>
       <r>  -13.0233    1.0000 </r>
       <r>  -13.0223    1.0000 </r>
       <r>  -12.9746    1.0000 </r>
       <r>  -12.9735    1.0000 </r>
       <r>  -12.9321    1.0000 </r>
       <r>  -12.9310    1.0000 </r>
       <r>  -12.6864    1.0000 </r>
       <r>  -12.6832    1.0000 </r>
       <r>  -12.6092    1.0000 </r>
       <r>  -12.6074    1.0000 </r>
       <r>   -6.3292    1.0000 </r>
       <r>   -6.1111    1.0000 </r>
       <r>   -6.1094    1.0000 </r>
       <r>   -6.0562    1.0000 </r>
       <r>   -6.0536    1.0000 </r>
       <r>   -5.9520    1.0000 </r>
       <r>   -5.9501    1.0000 </r>
       <r>   -5.8631    1.0000 </r>
       <r>   -5.8602    1.0000 </r>
       <r>   -5.3732    1.0000 </r>
       <r>   -5.3701    1.0000 </r>
       <r>   -5.0299    1.0000 </r>
       <r>   -5.0287    1.0000 </r>
       <r>   -4.9007    1.0000 </r>
       <r>   -4.8999    1.0000 </r>
       <r>   -4.7582    1.0000 </r>
       <r>   -4.7569    1.0000 </r>
       <r>   -4.7313    1.0000 </r>
       <r>   -4.7235    1.0000 </r>
       <r>   -4.6426    1.0000 </r>
       <r>   -4.6408    1.0000 </r>
       <r>   -4.6263    1.0000 </r>
       <r>   -4.6246    1.0000 </r>
       <r>   -4.6221    1.0000 </r>
       <r>   -4.6208    1.0000 </r>
       <r>   -4.2724    1.0000 </r>
       <r>   -4.2630    1.0000 </r>
       <r>   -3.6552    1.0000 </r>
       <r>   -3.6528    1.0000 </r>
       <r>   -3.6155    1.0000 </r>
       <r>   -3.6124    1.0000 </r>
       <r>   -3.6057    1.0000 </r>
       <r>   -3.6022    1.0000 </r>
       <r>   -3.5052    1.0000 </r>
       <r>   -3.5031    1.0000 </r>
       <r>   -3.3616    1.0000 </r>
       <r>   -3.3323    1.0000 </r>
       <r>   -2.8682    1.0000 </r>
       <r>   -2.8655    1.0000 </r>
       <r>   -2.5831    1.0000 </r>
       <r>   -2.4101    1.0000 </r>
       <r>   -2.4084    1.0000 </r>
       <r>   -2.3335    1.0000 </r>
       <r>   -2.3309    1.0000 </r>
       <r>   -2.2817    1.0000 </r>
       <r>   -2.2797    1.0000 </r>
       <r>   -2.2531    1.0000 </r>
       <r>   -2.2088    1.0000 </r>
       <r>   -2.2068    1.0000 </r>
       <r>   -2.1684    1.0000 </r>
       <r>   -2.1509    1.0000 </r>
       <r>   -2.1476    1.0000 </r>
       <r>   -2.0306    1.0000 </r>
       <r>   -2.0292    1.0000 </r>
       <r>   -1.6770    1.0000 </r>
       <r>   -1.6754    1.0000 </r>
       <r>   -1.6733    1.0000 </r>
       <r>   -1.6726    1.0000 </r>
       <r>   -1.6716    1.0000 </r>
       <r>   -1.6698    1.0000 </r>
       <r>   -0.7714    1.0000 </r>
       <r>   -0.7692    1.0000 </r>
       <r>   -0.7374    1.0000 </r>
       <r>    0.9553    0.0000 </r>
       <r>    0.9567    0.0000 </r>
       <r>    1.4507    0.0000 </r>
       <r>    1.4524    0.0000 </r>
       <r>    1.4632    0.0000 </r>
       <r>    1.4636    0.0000 </r>
       <r>    1.4803    0.0000 </r>
       <r>    1.4822    0.0000 </r>
       <r>    1.5648    0.0000 </r>
       <r>    1.5671    0.0000 </r>
       <r>    1.6319    0.0000 </r>
       <r>    1.6331    0.0000 </r>
       <r>    1.6737    0.0000 </r>
       <r>    1.6755    0.0000 </r>
       <r>    2.0090    0.0000 </r>
       <r>    2.0395    0.0000 </r>
       <r>    2.2449    0.0000 </r>
       <r>    2.2617    0.0000 </r>
       <r>    2.3416    0.0000 </r>
       <r>    2.3443    0.0000 </r>
       <r>    2.5345    0.0000 </r>
       <r>    2.5389    0.0000 </r>
       <r>    2.6384    0.0000 </r>
      </set>
      <set comment="kpoint 3">
       <r>  -61.6039    1.0000 </r>
       <r>  -61.5786    1.0000 </r>
       <r>  -61.5782    1.0000 </r>
       <r>  -61.5763    1.0000 </r>
       <r>  -61.5759    1.0000 </r>
       <r>  -61.5742    1.0000 </r>
       <r>  -61.5739    1.0000 </r>
       <r>  -61.5623    1.0000 </r>
       <r>  -61.5622    1.0000 </r>
       <r>  -35.8377    1.0000 </r>
       <r>  -35.8374    1.0000 </r>
       <r>  -35.8224    1.0000 </r>
       <r>  -35.8214    1.0000 </r>
       <r>  -35.8181    1.0000 </r>
       <r>  -35.8176    1.0000 </r>
       <r>  -35.7967    1.0000 </r>
       <r>  -35.7964    1.0000 </r>
       <r>  -35.7694    1.0000 </r>
       <r>  -35.7689    1.0000 </r>
       <r>  -35.7429    1.0000 </r>
       <r>  -35.6923    1.0000 </r>
       <r>  -35.6918    1.0000 </r>
       <r>  -35.6877    1.0000 </r>
       <r>  -35.6873    1.0000 </r>
       <r>  -35.6838    1.0000 </r>
       <r>  -35.6834    1.0000 </r>
       <r>  -35.6601    1.0000 </r>
       <r>  -35.6599    1.0000 </r>
       <r>  -35.6089    1.0000 </r>
       <r>  -35.6086    1.0000 </r>
       <r>  -35.6052    1.0000 </r>
       <r>  -35.6051    1.0000 </r>
       <r>  -35.5993    1.0000 </r>
       <r>  -35.5989    1.0000 </r>
       <r>  -35.5416    1.0000 </r>
       <r>  -35.5400    1.0000 </r>
       <r>  -14.7984    1.0000 </r>
       <r>  -13.6225    1.0000 </r>
       <r>  -13.6192    1.0000 </r>
       <r>  -13.5011    1.0000 </r>
       <r>  -13.4989    1.0000 </r>
       <r>  -13.4963    1.0000 </r>
       <r>  -13.3899    1.0000 </r>
       <r>  -13.3868    1.0000 </r>
       <r>  -13.0233    1.0000 </r>
       <r>  -13.0222    1.0000 </r>
       <r>  -12.9752    1.0000 </r>
       <r>  -12.9734    1.0000 </r>
       <r>  -12.9320    1.0000 </r>
       <r>  -12.9309    1.0000 </r>
       <r>  -12.6864    1.0000 </r>
       <r>  -12.6832    1.0000 </r>
       <r>  -12.6092    1.0000 </r>
       <r>  -12.6074    1.0000 </r>
       <r>   -6.3292    1.0000 </r>
       <r>   -6.1111    1.0000 </r>
       <r>   -6.1094    1.0000 </r>
       <r>   -6.0564    1.0000 </r>
       <r>   -6.0534    1.0000 </r>
       <r>   -5.9522    1.0000 </r>
       <r>   -5.9499    1.0000 </r>
       <r>   -5.8633    1.0000 </r>
       <r>   -5.8600    1.0000 </r>
       <r>   -5.3734    1.0000 </r>
       <r>   -5.3699    1.0000 </r>
       <r>   -5.0302    1.0000 </r>
       <r>   -5.0286    1.0000 </r>
       <r>   -4.9010    1.0000 </r>
       <r>   -4.8997    1.0000 </r>
       <r>   -4.7582    1.0000 </r>
       <r>   -4.7567    1.0000 </r>
       <r>   -4.7314    1.0000 </r>
       <r>   -4.7233    1.0000 </r>
       <r>   -4.6432    1.0000 </r>
       <r>   -4.6404    1.0000 </r>
       <r>   -4.6261    1.0000 </r>
       <r>   -4.6240    1.0000 </r>
       <r>   -4.6227    1.0000 </r>
       <r>   -4.6207    1.0000 </r>
       <r>   -4.2725    1.0000 </r>
       <r>   -4.2629    1.0000 </r>
       <r>   -3.6558    1.0000 </r>
       <r>   -3.6526    1.0000 </r>
       <r>   -3.6152    1.0000 </r>
       <r>   -3.6123    1.0000 </r>
       <r>   -3.6049    1.0000 </r>
       <r>   -3.6022    1.0000 </r>
       <r>   -3.5060    1.0000 </r>
       <r>   -3.5029    1.0000 </r>
       <r>   -3.3618    1.0000 </r>
       <r>   -3.3320    1.0000 </r>
       <r>   -2.8683    1.0000 </r>
       <r>   -2.8654    1.0000 </r>
       <r>   -2.5828    1.0000 </r>
       <r>   -2.4100    1.0000 </r>
       <r>   -2.4083    1.0000 </r>
       <r>   -2.3335    1.0000 </r>
       <r>   -2.3313    1.0000 </r>
       <r>   -2.2817    1.0000 </r>
       <r>   -2.2795    1.0000 </r>
       <r>   -2.2543    1.0000 </r>
       <r>   -2.2085    1.0000 </r>
       <r>   -2.2068    1.0000 </r>
       <r>   -2.1675    1.0000 </r>
       <r>   -2.1512    1.0000 </r>
       <r>   -2.1476    1.0000 </r>
       <r>   -2.0308    1.0000 </r>
       <r>   -2.0293    1.0000 </r>
       <r>   -1.6761    1.0000 </r>
       <r>   -1.6753    1.0000 </r>
       <r>   -1.6738    1.0000 </r>
       <r>   -1.6730    1.0000 </r>
       <r>   -1.6715    1.0000 </r>
       <r>   -1.6699    1.0000 </r>
       <r>   -0.7714    1.0000 </r>
       <r>   -0.7691    1.0000 </r>
       <r>   -0.7374    1.0000 </r>
       <r>    0.9552    0.0000 </r>
       <r>    0.9568    0.0000 </r>
       <r>    1.4505    0.0000 </r>
       <r>    1.4527    0.0000 </r>
       <r>    1.4631    0.0000 </r>
       <r>    1.4636    0.0000 </r>
       <r>    1.4803    0.0000 </r>
       <r>    1.4826    0.0000 </r>
       <r>    1.5647    0.0000 </r>
       <r>    1.5667    0.0000 </r>
       <r>    1.6316    0.0000 </r>
       <r>    1.6336    0.0000 </r>
       <r>    1.6739    0.0000 </r>
       <r>    1.6753    0.0000 </r>
       <r>    2.0077    0.0000 </r>
       <r>    2.0408    0.0000 </r>
       <r>    2.2455    0.0000 </r>
       <r>    2.2611    0.0000 </r>
       <r>    2.3416    0.0000 </r>
       <r>    2.3443    0.0000 </r>
       <r>    2.5347    0.0000 </r>
       <r>    2.5393    0.0000 </r>
       <r>    2.6387    0.0000 </r>
      </set>
      <set comment="kpoint 4">
       <r>  -61.6032    1.0000 </r>
       <r>  -61.5815    1.0000 </r>
       <r>  -61.5796    1.0000 </r>
       <r>  -61.5772    1.0000 </r>
       <r>  -61.5744    1.0000 </r>
       <r>  -61.5727    1.0000 </r>
       <r>  -61.5716    1.0000 </r>
       <r>  -61.5627    1.0000 </r>
       <r>  -61.5625    1.0000 </r>
       <r>  -35.8608    1.0000 </r>
       <r>  -35.8489    1.0000 </r>
       <r>  -35.8331    1.0000 </r>
       <r>  -35.8308    1.0000 </r>
       <r>  -35.8302    1.0000 </r>
       <r>  -35.8037    1.0000 </r>
       <r>  -35.7820    1.0000 </r>
       <r>  -35.7663    1.0000 </r>
       <r>  -35.7555    1.0000 </r>
       <r>  -35.7540    1.0000 </r>
       <r>  -35.7415    1.0000 </r>
       <r>  -35.6982    1.0000 </r>
       <r>  -35.6946    1.0000 </r>
       <r>  -35.6897    1.0000 </r>
       <r>  -35.6842    1.0000 </r>
       <r>  -35.6808    1.0000 </r>
       <r>  -35.6788    1.0000 </r>
       <r>  -35.6608    1.0000 </r>
       <r>  -35.6606    1.0000 </r>
       <r>  -35.6148    1.0000 </r>
       <r>  -35.6142    1.0000 </r>
       <r>  -35.6128    1.0000 </r>
       <r>  -35.6060    1.0000 </r>
       <r>  -35.5982    1.0000 </r>
       <r>  -35.5919    1.0000 </r>
       <r>  -35.5488    1.0000 </r>
       <r>  -35.5415    1.0000 </r>
       <r>  -14.7698    1.0000 </r>
       <r>  -13.7824    1.0000 </r>
       <r>  -13.6892    1.0000 </r>
       <r>  -13.5594    1.0000 </r>
       <r>  -13.4891    1.0000 </r>
       <r>  -13.4058    1.0000 </r>
       <r>  -13.3065    1.0000 </r>
       <r>  -13.2486    1.0000 </r>
       <r>  -13.0873    1.0000 </r>
       <r>  -13.0494    1.0000 </r>
       <r>  -12.9970    1.0000 </r>
       <r>  -12.9364    1.0000 </r>
       <r>  -12.8988    1.0000 </r>
       <r>  -12.8779    1.0000 </r>
       <r>  -12.7094    1.0000 </r>
       <r>  -12.7039    1.0000 </r>
       <r>  -12.6210    1.0000 </r>
       <r>  -12.6185    1.0000 </r>
       <r>   -6.2961    1.0000 </r>
       <r>   -6.1852    1.0000 </r>
       <r>   -6.1069    1.0000 </r>
       <r>   -6.0713    1.0000 </r>
       <r>   -6.0664    1.0000 </r>
       <r>   -5.9988    1.0000 </r>
       <r>   -5.8735    1.0000 </r>
       <r>   -5.7983    1.0000 </r>
       <r>   -5.7624    1.0000 </r>
       <r>   -5.5188    1.0000 </r>
       <r>   -5.5065    1.0000 </r>
       <r>   -5.1842    1.0000 </r>
       <r>   -5.1195    1.0000 </r>
       <r>   -5.0008    1.0000 </r>
       <r>   -4.8122    1.0000 </r>
       <r>   -4.6705    1.0000 </r>
       <r>   -4.6596    1.0000 </r>
       <r>   -4.6442    1.0000 </r>
       <r>   -4.6374    1.0000 </r>
       <r>   -4.6178    1.0000 </r>
       <r>   -4.6100    1.0000 </r>
       <r>   -4.6080    1.0000 </r>
       <r>   -4.6063    1.0000 </r>
       <r>   -4.5948    1.0000 </r>
       <r>   -4.5574    1.0000 </r>
       <r>   -4.2074    1.0000 </r>
       <r>   -4.1555    1.0000 </r>
       <r>   -3.7351    1.0000 </r>
       <r>   -3.7338    1.0000 </r>
       <r>   -3.7161    1.0000 </r>
       <r>   -3.6704    1.0000 </r>
       <r>   -3.6632    1.0000 </r>
       <r>   -3.6385    1.0000 </r>
       <r>   -3.5162    1.0000 </r>
       <r>   -3.4270    1.0000 </r>
       <r>   -3.3868    1.0000 </r>
       <r>   -3.3027    1.0000 </r>
       <r>   -2.8119    1.0000 </r>
       <r>   -2.7999    1.0000 </r>
       <r>   -2.7515    1.0000 </r>
       <r>   -2.4776    1.0000 </r>
       <r>   -2.4140    1.0000 </r>
       <r>   -2.3433    1.0000 </r>
       <r>   -2.3254    1.0000 </r>
       <r>   -2.3233    1.0000 </r>
       <r>   -2.3035    1.0000 </r>
       <r>   -2.2994    1.0000 </r>
       <r>   -2.2304    1.0000 </r>
       <r>   -2.2241    1.0000 </r>
       <r>   -2.1820    1.0000 </r>
       <r>   -2.1801    1.0000 </r>
       <r>   -2.0966    1.0000 </r>
       <r>   -2.0422    1.0000 </r>
       <r>   -1.9316    1.0000 </r>
       <r>   -1.6272    1.0000 </r>
       <r>   -1.6248    1.0000 </r>
       <r>   -1.6188    1.0000 </r>
       <r>   -1.6020    1.0000 </r>
       <r>   -1.6010    1.0000 </r>
       <r>   -1.5897    1.0000 </r>
       <r>   -0.8365    1.0000 </r>
       <r>   -0.8248    1.0000 </r>
       <r>   -0.7507    1.0000 </r>
       <r>    1.0288    0.0000 </r>
       <r>    1.0356    0.0000 </r>
       <r>    1.3915    0.0000 </r>
       <r>    1.4104    0.0000 </r>
       <r>    1.4189    0.0000 </r>
       <r>    1.4496    0.0000 </r>
       <r>    1.4643    0.0000 </r>
       <r>    1.4698    0.0000 </r>
       <r>    1.5583    0.0000 </r>
       <r>    1.6140    0.0000 </r>
       <r>    1.6598    0.0000 </r>
       <r>    1.7042    0.0000 </r>
       <r>    1.7368    0.0000 </r>
       <r>    1.7627    0.0000 </r>
       <r>    1.9671    0.0000 </r>
       <r>    2.0902    0.0000 </r>
       <r>    2.1604    0.0000 </r>
       <r>    2.2290    0.0000 </r>
       <r>    2.3629    0.0000 </r>
       <r>    2.3683    0.0000 </r>
       <r>    2.3759    0.0000 </r>
       <r>    2.4007    0.0000 </r>
       <r>    2.4866    0.0000 </r>
      </set>
      <set comment="kpoint 5">
       <r>  -61.6032    1.0000 </r>
       <r>  -61.5815    1.0000 </r>
       <r>  -61.5796    1.0000 </r>
       <r>  -61.5772    1.0000 </r>
       <r>  -61.5744    1.0000 </r>
       <r>  -61.5727    1.0000 </r>
       <r>  -61.5716    1.0000 </r>
       <r>  -61.5627    1.0000 </r>
       <r>  -61.5625    1.0000 </r>
       <r>  -35.8607    1.0000 </r>
       <r>  -35.8489    1.0000 </r>
       <r>  -35.8332    1.0000 </r>
       <r>  -35.8309    1.0000 </r>
       <r>  -35.8302    1.0000 </r>
       <r>  -35.8038    1.0000 </r>
       <r>  -35.7820    1.0000 </r>
       <r>  -35.7662    1.0000 </r>
       <r>  -35.7555    1.0000 </r>
       <r>  -35.7540    1.0000 </r>
       <r>  -35.7415    1.0000 </r>
       <r>  -35.6982    1.0000 </r>
       <r>  -35.6946    1.0000 </r>
       <r>  -35.6897    1.0000 </r>
       <r>  -35.6842    1.0000 </r>
       <r>  -35.6808    1.0000 </r>
       <r>  -35.6788    1.0000 </r>
       <r>  -35.6608    1.0000 </r>
       <r>  -35.6606    1.0000 </r>
       <r>  -35.6148    1.0000 </r>
       <r>  -35.6142    1.0000 </r>
       <r>  -35.6128    1.0000 </r>
       <r>  -35.6060    1.0000 </r>
       <r>  -35.5982    1.0000 </r>
       <r>  -35.5920    1.0000 </r>
       <r>  -35.5487    1.0000 </r>
       <r>  -35.5416    1.0000 </r>
       <r>  -14.7698    1.0000 </r>
       <r>  -13.7826    1.0000 </r>
       <r>  -13.6891    1.0000 </r>
       <r>  -13.5592    1.0000 </r>
       <r>  -13.4891    1.0000 </r>
       <r>  -13.4057    1.0000 </r>
       <r>  -13.3064    1.0000 </r>
       <r>  -13.2489    1.0000 </r>
       <r>  -13.0870    1.0000 </r>
       <r>  -13.0496    1.0000 </r>
       <r>  -12.9972    1.0000 </r>
       <r>  -12.9365    1.0000 </r>
       <r>  -12.8990    1.0000 </r>
       <r>  -12.8774    1.0000 </r>
       <r>  -12.7094    1.0000 </r>
       <r>  -12.7039    1.0000 </r>
       <r>  -12.6210    1.0000 </r>
       <r>  -12.6185    1.0000 </r>
       <r>   -6.2961    1.0000 </r>
       <r>   -6.1851    1.0000 </r>
       <r>   -6.1069    1.0000 </r>
       <r>   -6.0713    1.0000 </r>
       <r>   -6.0665    1.0000 </r>
       <r>   -5.9989    1.0000 </r>
       <r>   -5.8734    1.0000 </r>
       <r>   -5.7982    1.0000 </r>
       <r>   -5.7626    1.0000 </r>
       <r>   -5.5188    1.0000 </r>
       <r>   -5.5066    1.0000 </r>
       <r>   -5.1845    1.0000 </r>
       <r>   -5.1196    1.0000 </r>
       <r>   -5.0010    1.0000 </r>
       <r>   -4.8120    1.0000 </r>
       <r>   -4.6712    1.0000 </r>
       <r>   -4.6594    1.0000 </r>
       <r>   -4.6436    1.0000 </r>
       <r>   -4.6373    1.0000 </r>
       <r>   -4.6172    1.0000 </r>
       <r>   -4.6099    1.0000 </r>
       <r>   -4.6081    1.0000 </r>
       <r>   -4.6063    1.0000 </r>
       <r>   -4.5946    1.0000 </r>
       <r>   -4.5570    1.0000 </r>
       <r>   -4.2077    1.0000 </r>
       <r>   -4.1555    1.0000 </r>
       <r>   -3.7359    1.0000 </r>
       <r>   -3.7332    1.0000 </r>
       <r>   -3.7153    1.0000 </r>
       <r>   -3.6703    1.0000 </r>
       <r>   -3.6629    1.0000 </r>
       <r>   -3.6385    1.0000 </r>
       <r>   -3.5160    1.0000 </r>
       <r>   -3.4275    1.0000 </r>
       <r>   -3.3880    1.0000 </r>
       <r>   -3.3022    1.0000 </r>
       <r>   -2.8121    1.0000 </r>
       <r>   -2.8000    1.0000 </r>
       <r>   -2.7507    1.0000 </r>
       <r>   -2.4770    1.0000 </r>
       <r>   -2.4145    1.0000 </r>
       <r>   -2.3431    1.0000 </r>
       <r>   -2.3253    1.0000 </r>
       <r>   -2.3238    1.0000 </r>
       <r>   -2.3036    1.0000 </r>
       <r>   -2.3009    1.0000 </r>
       <r>   -2.2310    1.0000 </r>
       <r>   -2.2239    1.0000 </r>
       <r>   -2.1820    1.0000 </r>
       <r>   -2.1798    1.0000 </r>
       <r>   -2.0972    1.0000 </r>
       <r>   -2.0411    1.0000 </r>
       <r>   -1.9316    1.0000 </r>
       <r>   -1.6283    1.0000 </r>
       <r>   -1.6258    1.0000 </r>
       <r>   -1.6177    1.0000 </r>
[...]
       <r>   -4.4031    1.0000 </r>
       <r>   -4.4023    1.0000 </r>
       <r>   -4.1854    1.0000 </r>
       <r>   -3.9992    1.0000 </r>
       <r>   -3.9384    1.0000 </r>
       <r>   -3.9360    1.0000 </r>
       <r>   -3.9152    1.0000 </r>
       <r>   -3.9128    1.0000 </r>
       <r>   -3.8990    1.0000 </r>
       <r>   -3.8975    1.0000 </r>
       <r>   -3.8886    1.0000 </r>
       <r>   -3.7496    1.0000 </r>
       <r>   -3.5309    1.0000 </r>
       <r>   -3.2318    1.0000 </r>
       <r>   -3.2302    1.0000 </r>
       <r>   -2.9979    1.0000 </r>
       <r>   -2.9479    1.0000 </r>
       <r>   -2.9463    1.0000 </r>
       <r>   -2.8735    1.0000 </r>
       <r>   -2.8557    1.0000 </r>
       <r>   -2.7122    1.0000 </r>
       <r>   -2.6930    1.0000 </r>
       <r>   -2.6898    1.0000 </r>
       <r>   -2.6033    1.0000 </r>
       <r>   -2.4761    1.0000 </r>
       <r>   -2.4750    1.0000 </r>
       <r>   -2.4142    1.0000 </r>
       <r>   -2.4129    1.0000 </r>
       <r>   -1.8368    1.0000 </r>
       <r>   -1.7992    1.0000 </r>
       <r>   -1.7865    1.0000 </r>
       <r>   -1.7855    1.0000 </r>
       <r>   -1.7156    1.0000 </r>
       <r>   -1.5197    1.0000 </r>
       <r>   -1.5191    1.0000 </r>
       <r>   -1.3664    1.0000 </r>
       <r>   -1.2714    1.0000 </r>
       <r>   -1.2708    1.0000 </r>
       <r>   -1.1870    1.0000 </r>
       <r>   -1.1866    1.0000 </r>
       <r>   -1.0845    1.0000 </r>
       <r>   -0.9642    1.0000 </r>
       <r>    1.2087    0.0000 </r>
       <r>    1.2093    0.0000 </r>
       <r>    1.4479    0.0000 </r>
       <r>    1.4495    0.0000 </r>
       <r>    1.4938    0.0000 </r>
       <r>    1.4961    0.0000 </r>
       <r>    1.5054    0.0000 </r>
       <r>    1.5209    0.0000 </r>
       <r>    1.6247    0.0000 </r>
       <r>    1.7389    0.0000 </r>
       <r>    1.7405    0.0000 </r>
       <r>    1.8255    0.0000 </r>
       <r>    1.8403    0.0000 </r>
       <r>    1.8733    0.0000 </r>
       <r>    1.9378    0.0000 </r>
       <r>    1.9508    0.0000 </r>
       <r>    1.9519    0.0000 </r>
       <r>    1.9887    0.0000 </r>
       <r>    1.9894    0.0000 </r>
       <r>    2.0142    0.0000 </r>
       <r>    2.1312    0.0000 </r>
       <r>    2.1318    0.0000 </r>
       <r>    2.5403    0.0000 </r>
      </set>
     </set>
    </set>
   </array>
  </eigenvalues>
  <separator name="orbital magnetization" >
   <v name="MAGDIPOLOUT">      0.00000000      0.00000000      0.00000000</v>
  </separator>
  <dos>
   <i name="efermi">     -0.24423540 </i>
   <total>
    <array>
     <dimension dim="1">gridpoints</dimension>
     <dimension dim="2">spin</dimension>
     <field>energy</field>
     <field>total</field>
     <field>integrated</field>
     <set>
      <set comment="spin 1">
       <r>   -64.8161     0.0000     0.0000 </r>
       <r>   -64.5806     0.0000     0.0000 </r>
       <r>   -64.3450     0.0000     0.0000 </r>
       <r>   -64.1095     0.0000     0.0000 </r>
       <r>   -63.8739     0.0000     0.0000 </r>
       <r>   -63.6383     0.0000     0.0000 </r>
       <r>   -63.4028     0.0000     0.0000 </r>
       <r>   -63.1672     0.0000     0.0000 </r>
       <r>   -62.9317     0.0000     0.0000 </r>
       <r>   -62.6961     0.0000     0.0000 </r>
       <r>   -62.4606     0.0000     0.0000 </r>
       <r>   -62.2250     0.0000     0.0000 </r>
       <r>   -61.9895     0.0000     0.0000 </r>
       <r>   -61.7539     0.5035     0.1186 </r>
       <r>   -61.5183    59.8722    14.2219 </r>
       <r>   -61.2828    16.0376    17.9996 </r>
       <r>   -61.0472     0.0015    18.0000 </r>
       <r>   -60.8117     0.0000    18.0000 </r>
       <r>   -60.5761     0.0000    18.0000 </r>
       <r>   -60.3406     0.0000    18.0000 </r>
       <r>   -60.1050     0.0000    18.0000 </r>
       <r>   -59.8694     0.0000    18.0000 </r>
       <r>   -59.6339     0.0000    18.0000 </r>
       <r>   -59.3983     0.0000    18.0000 </r>
       <r>   -59.1628     0.0000    18.0000 </r>
       <r>   -58.9272     0.0000    18.0000 </r>
       <r>   -58.6917     0.0000    18.0000 </r>
       <r>   -58.4561     0.0000    18.0000 </r>
       <r>   -58.2206     0.0000    18.0000 </r>
       <r>   -57.9850     0.0000    18.0000 </r>
       <r>   -57.7494     0.0000    18.0000 </r>
       <r>   -57.5139     0.0000    18.0000 </r>
       <r>   -57.2783     0.0000    18.0000 </r>
       <r>   -57.0428     0.0000    18.0000 </r>
       <r>   -56.8072     0.0000    18.0000 </r>
       <r>   -56.5717     0.0000    18.0000 </r>
       <r>   -56.3361     0.0000    18.0000 </r>
       <r>   -56.1005     0.0000    18.0000 </r>
       <r>   -55.8650     0.0000    18.0000 </r>
       <r>   -55.6294     0.0000    18.0000 </r>
       <r>   -55.3939     0.0000    18.0000 </r>
       <r>   -55.1583     0.0000    18.0000 </r>
       <r>   -54.9228     0.0000    18.0000 </r>
       <r>   -54.6872     0.0000    18.0000 </r>
       <r>   -54.4516     0.0000    18.0000 </r>
       <r>   -54.2161     0.0000    18.0000 </r>
       <r>   -53.9805     0.0000    18.0000 </r>
       <r>   -53.7450     0.0000    18.0000 </r>
       <r>   -53.5094     0.0000    18.0000 </r>
       <r>   -53.2739     0.0000    18.0000 </r>
       <r>   -53.0383     0.0000    18.0000 </r>
       <r>   -52.8028     0.0000    18.0000 </r>
       <r>   -52.5672     0.0000    18.0000 </r>
       <r>   -52.3316     0.0000    18.0000 </r>
       <r>   -52.0961     0.0000    18.0000 </r>
       <r>   -51.8605     0.0000    18.0000 </r>
       <r>   -51.6250     0.0000    18.0000 </r>
       <r>   -51.3894     0.0000    18.0000 </r>
       <r>   -51.1539     0.0000    18.0000 </r>
       <r>   -50.9183     0.0000    18.0000 </r>
       <r>   -50.6827     0.0000    18.0000 </r>
       <r>   -50.4472     0.0000    18.0000 </r>
       <r>   -50.2116     0.0000    18.0000 </r>
       <r>   -49.9761     0.0000    18.0000 </r>
       <r>   -49.7405     0.0000    18.0000 </r>
       <r>   -49.5050     0.0000    18.0000 </r>
       <r>   -49.2694     0.0000    18.0000 </r>
       <r>   -49.0339     0.0000    18.0000 </r>
       <r>   -48.7983     0.0000    18.0000 </r>
       <r>   -48.5627     0.0000    18.0000 </r>
       <r>   -48.3272     0.0000    18.0000 </r>
       <r>   -48.0916     0.0000    18.0000 </r>
       <r>   -47.8561     0.0000    18.0000 </r>
       <r>   -47.6205     0.0000    18.0000 </r>
       <r>   -47.3850     0.0000    18.0000 </r>
       <r>   -47.1494     0.0000    18.0000 </r>
       <r>   -46.9138     0.0000    18.0000 </r>
       <r>   -46.6783     0.0000    18.0000 </r>
       <r>   -46.4427     0.0000    18.0000 </r>
       <r>   -46.2072     0.0000    18.0000 </r>
       <r>   -45.9716     0.0000    18.0000 </r>
       <r>   -45.7361     0.0000    18.0000 </r>
       <r>   -45.5005     0.0000    18.0000 </r>
       <r>   -45.2650     0.0000    18.0000 </r>
       <r>   -45.0294     0.0000    18.0000 </r>
       <r>   -44.7938     0.0000    18.0000 </r>
       <r>   -44.5583     0.0000    18.0000 </r>
       <r>   -44.3227     0.0000    18.0000 </r>
       <r>   -44.0872     0.0000    18.0000 </r>
       <r>   -43.8516     0.0000    18.0000 </r>
       <r>   -43.6161     0.0000    18.0000 </r>
       <r>   -43.3805     0.0000    18.0000 </r>
       <r>   -43.1449     0.0000    18.0000 </r>
       <r>   -42.9094     0.0000    18.0000 </r>
       <r>   -42.6738     0.0000    18.0000 </r>
       <r>   -42.4383     0.0000    18.0000 </r>
       <r>   -42.2027     0.0000    18.0000 </r>
       <r>   -41.9672     0.0000    18.0000 </r>
       <r>   -41.7316     0.0000    18.0000 </r>
       <r>   -41.4960     0.0000    18.0000 </r>
       <r>   -41.2605     0.0000    18.0000 </r>
       <r>   -41.0249     0.0000    18.0000 </r>
       <r>   -40.7894     0.0000    18.0000 </r>
       <r>   -40.5538     0.0000    18.0000 </r>
       <r>   -40.3183     0.0000    18.0000 </r>
       <r>   -40.0827     0.0000    18.0000 </r>
       <r>   -39.8472     0.0000    18.0000 </r>
       <r>   -39.6116     0.0000    18.0000 </r>
       <r>   -39.3760     0.0000    18.0000 </r>
       <r>   -39.1405     0.0000    18.0000 </r>
       <r>   -38.9049     0.0000    18.0000 </r>
       <r>   -38.6694     0.0000    18.0000 </r>
       <r>   -38.4338     0.0000    18.0000 </r>
       <r>   -38.1983     0.0000    18.0000 </r>
       <r>   -37.9627     0.0000    18.0000 </r>
       <r>   -37.7271     0.0000    18.0000 </r>
       <r>   -37.4916     0.0000    18.0000 </r>
       <r>   -37.2560     0.0000    18.0000 </r>
       <r>   -37.0205     0.0000    18.0000 </r>
       <r>   -36.7849     0.0000    18.0000 </r>
       <r>   -36.5494     0.0000    18.0000 </r>
       <r>   -36.3138     0.0000    18.0000 </r>
       <r>   -36.0783     0.0769    18.0181 </r>
       <r>   -35.8427    30.5729    25.2198 </r>
       <r>   -35.6071   150.4191    60.6519 </r>
       <r>   -35.3716    48.0823    71.9780 </r>
       <r>   -35.1360     0.0933    72.0000 </r>
       <r>   -34.9005     0.0000    72.0000 </r>
       <r>   -34.6649     0.0000    72.0000 </r>
       <r>   -34.4294     0.0000    72.0000 </r>
       <r>   -34.1938     0.0000    72.0000 </r>
       <r>   -33.9582     0.0000    72.0000 </r>
       <r>   -33.7227     0.0000    72.0000 </r>
       <r>   -33.4871     0.0000    72.0000 </r>
       <r>   -33.2516     0.0000    72.0000 </r>
       <r>   -33.0160     0.0000    72.0000 </r>
       <r>   -32.7805     0.0000    72.0000 </r>
       <r>   -32.5449     0.0000    72.0000 </r>
       <r>   -32.3093     0.0000    72.0000 </r>
       <r>   -32.0738     0.0000    72.0000 </r>
       <r>   -31.8382     0.0000    72.0000 </r>
       <r>   -31.6027     0.0000    72.0000 </r>
       <r>   -31.3671     0.0000    72.0000 </r>
       <r>   -31.1316     0.0000    72.0000 </r>
       <r>   -30.8960     0.0000    72.0000 </r>
       <r>   -30.6605     0.0000    72.0000 </r>
       <r>   -30.4249     0.0000    72.0000 </r>
       <r>   -30.1893     0.0000    72.0000 </r>
       <r>   -29.9538     0.0000    72.0000 </r>
       <r>   -29.7182     0.0000    72.0000 </r>
       <r>   -29.4827     0.0000    72.0000 </r>
       <r>   -29.2471     0.0000    72.0000 </r>
       <r>   -29.0116     0.0000    72.0000 </r>
       <r>   -28.7760     0.0000    72.0000 </r>
       <r>   -28.5404     0.0000    72.0000 </r>
       <r>   -28.3049     0.0000    72.0000 </r>
       <r>   -28.0693     0.0000    72.0000 </r>
       <r>   -27.8338     0.0000    72.0000 </r>
       <r>   -27.5982     0.0000    72.0000 </r>
       <r>   -27.3627     0.0000    72.0000 </r>
       <r>   -27.1271     0.0000    72.0000 </r>
       <r>   -26.8916     0.0000    72.0000 </r>
       <r>   -26.6560     0.0000    72.0000 </r>
       <r>   -26.4204     0.0000    72.0000 </r>
       <r>   -26.1849     0.0000    72.0000 </r>
       <r>   -25.9493     0.0000    72.0000 </r>
       <r>   -25.7138     0.0000    72.0000 </r>
       <r>   -25.4782     0.0000    72.0000 </r>
       <r>   -25.2427     0.0000    72.0000 </r>
       <r>   -25.0071     0.0000    72.0000 </r>
       <r>   -24.7715     0.0000    72.0000 </r>
       <r>   -24.5360     0.0000    72.0000 </r>
       <r>   -24.3004     0.0000    72.0000 </r>
       <r>   -24.0649     0.0000    72.0000 </r>
       <r>   -23.8293     0.0000    72.0000 </r>
       <r>   -23.5938     0.0000    72.0000 </r>
       <r>   -23.3582     0.0000    72.0000 </r>
       <r>   -23.1226     0.0000    72.0000 </r>
       <r>   -22.8871     0.0000    72.0000 </r>
       <r>   -22.6515     0.0000    72.0000 </r>
       <r>   -22.4160     0.0000    72.0000 </r>
       <r>   -22.1804     0.0000    72.0000 </r>
       <r>   -21.9449     0.0000    72.0000 </r>
       <r>   -21.7093     0.0000    72.0000 </r>
       <r>   -21.4738     0.0000    72.0000 </r>
       <r>   -21.2382     0.0000    72.0000 </r>
       <r>   -21.0026     0.0000    72.0000 </r>
       <r>   -20.7671     0.0000    72.0000 </r>
       <r>   -20.5315     0.0000    72.0000 </r>
       <r>   -20.2960     0.0000    72.0000 </r>
       <r>   -20.0604     0.0000    72.0000 </r>
       <r>   -19.8249     0.0000    72.0000 </r>
       <r>   -19.5893     0.0000    72.0000 </r>
       <r>   -19.3537     0.0000    72.0000 </r>
       <r>   -19.1182     0.0000    72.0000 </r>
       <r>   -18.8826     0.0000    72.0000 </r>
       <r>   -18.6471     0.0000    72.0000 </r>
       <r>   -18.4115     0.0000    72.0000 </r>
       <r>   -18.1760     0.0000    72.0000 </r>
       <r>   -17.9404     0.0000    72.0000 </r>
       <r>   -17.7049     0.0000    72.0000 </r>
       <r>   -17.4693     0.0000    72.0000 </r>
       <r>   -17.2337     0.0000    72.0000 </r>
       <r>   -16.9982     0.0000    72.0000 </r>
       <r>   -16.7626     0.0000    72.0000 </r>
       <r>   -16.5271     0.0000    72.0000 </r>
       <r>   -16.2915     0.0000    72.0000 </r>
       <r>   -16.0560     0.0000    72.0000 </r>
       <r>   -15.8204     0.0000    72.0000 </r>
       <r>   -15.5848     0.0000    72.0000 </r>
       <r>   -15.3493     0.0000    72.0000 </r>
       <r>   -15.1137     0.0000    72.0000 </r>
       <r>   -14.8782     0.1091    72.0257 </r>
       <r>   -14.6426     3.0312    72.7397 </r>
       <r>   -14.4071     4.7260    73.8529 </r>
       <r>   -14.1715     5.0922    75.0525 </r>
       <r>   -13.9360     5.5605    76.3623 </r>
       <r>   -13.7004     6.2029    77.8234 </r>
       <r>   -13.4648     9.6172    80.0888 </r>
       <r>   -13.2293    20.2958    84.8696 </r>
       <r>   -12.9937    29.0066    91.7023 </r>
       <r>   -12.7582    44.2865   102.1343 </r>
       <r>   -12.5226    24.4484   107.8932 </r>
       <r>   -12.2871     0.4532   108.0000 </r>
       <r>   -12.0515     0.0000   108.0000 </r>
       <r>   -11.8159     0.0000   108.0000 </r>
       <r>   -11.5804     0.0000   108.0000 </r>
       <r>   -11.3448     0.0000   108.0000 </r>
       <r>   -11.1093     0.0000   108.0000 </r>
       <r>   -10.8737     0.0000   108.0000 </r>
       <r>   -10.6382     0.0000   108.0000 </r>
       <r>   -10.4026     0.0000   108.0000 </r>
       <r>   -10.1670     0.0000   108.0000 </r>
       <r>    -9.9315     0.0000   108.0000 </r>
       <r>    -9.6959     0.0000   108.0000 </r>
       <r>    -9.4604     0.0000   108.0000 </r>
       <r>    -9.2248     0.0000   108.0000 </r>
       <r>    -8.9893     0.0000   108.0000 </r>
       <r>    -8.7537     0.0000   108.0000 </r>
       <r>    -8.5182     0.0000   108.0000 </r>
       <r>    -8.2826     0.0000   108.0000 </r>
       <r>    -8.0470     0.0000   108.0000 </r>
       <r>    -7.8115     0.0000   108.0000 </r>
       <r>    -7.5759     0.0000   108.0000 </r>
       <r>    -7.3404     0.0000   108.0000 </r>
       <r>    -7.1048     0.0000   108.0000 </r>
       <r>    -6.8693     0.0000   108.0000 </r>
       <r>    -6.6337     0.0197   108.0046 </r>
       <r>    -6.3981     3.8272   108.9062 </r>
       <r>    -6.1626    13.5815   112.1054 </r>
       <r>    -5.9270    24.2594   117.8198 </r>
       <r>    -5.6915    36.9010   126.5121 </r>
       <r>    -5.4559    22.1606   131.7322 </r>
       <r>    -5.2204    11.1075   134.3486 </r>
       <r>    -4.9848     6.9847   135.9939 </r>
       <r>    -4.7493    11.8907   138.7948 </r>
       <r>    -4.5137    43.5355   149.0499 </r>
       <r>    -4.2781    25.5777   155.0749 </r>
       <r>    -4.0426    13.9051   158.3504 </r>
       <r>    -3.8070    42.3404   168.3239 </r>
       <r>    -3.5715    26.6432   174.5999 </r>
       <r>    -3.3359    14.9145   178.1131 </r>
       <r>    -3.1004    15.0469   181.6575 </r>
       <r>    -2.8648    16.4583   185.5343 </r>
       <r>    -2.6292    27.3360   191.9735 </r>
       <r>    -2.3937    36.5354   200.5797 </r>
       <r>    -2.1581    23.1433   206.0312 </r>
       <r>    -1.9226    18.8548   210.4726 </r>
       <r>    -1.6870    21.9170   215.6353 </r>
       <r>    -1.4515    25.2084   221.5733 </r>
       <r>    -1.2159    23.6342   227.1404 </r>
       <r>    -0.9803    16.8462   231.1087 </r>
       <r>    -0.7448    10.6511   233.6176 </r>
       <r>    -0.5092     1.6228   233.9998 </r>
       <r>    -0.2737     0.0007   234.0000 </r>
       <r>    -0.0381     0.0000   234.0000 </r>
       <r>     0.1974     0.0000   234.0000 </r>
       <r>     0.4330     0.0000   234.0000 </r>
       <r>     0.6685     0.0000   234.0000 </r>
       <r>     0.9041     0.2264   234.0533 </r>
       <r>     1.1397     3.6204   234.9062 </r>
       <r>     1.3752    23.4914   240.4397 </r>
       <r>     1.6108    45.2533   251.0994 </r>
       <r>     1.8463    42.4919   261.1087 </r>
       <r>     2.0819    38.5051   270.1788 </r>
       <r>     2.3174    24.6380   275.9824 </r>
       <r>     2.5530    15.6035   279.6579 </r>
       <r>     2.7886     1.4476   279.9989 </r>
       <r>     3.0241     0.0046   280.0000 </r>
       <r>     3.2597     0.0000   280.0000 </r>
       <r>     3.4952     0.0000   280.0000 </r>
       <r>     3.7308     0.0000   280.0000 </r>
       <r>     3.9663     0.0000   280.0000 </r>
       <r>     4.2019     0.0000   280.0000 </r>
       <r>     4.4374     0.0000   280.0000 </r>
       <r>     4.6730     0.0000   280.0000 </r>
       <r>     4.9086     0.0000   280.0000 </r>
       <r>     5.1441     0.0000   280.0000 </r>
       <r>     5.3797     0.0000   280.0000 </r>
       <r>     5.6152     0.0000   280.0000 </r>
       <r>     5.8508     0.0000   280.0000 </r>
      </set>
     </set>
    </array>
   </total>
  </dos>
 </calculation>
 <structure name="finalpos" >
  <crystal>
   <varray name="basis" >
    <v>       9.55158141       0.00000000       0.00000000 </v>
    <v>      -4.77579070       8.27191214       0.00000000 </v>
    <v>       0.00000000       0.00000000      15.00000000 </v>
   </varray>
   <i name="volume">   1185.14763341 </i>
   <varray name="rec_basis" >
    <v>       0.10469471       0.06044552       0.00000000 </v>
    <v>       0.00000000       0.12089103       0.00000000 </v>
    <v>       0.00000000       0.00000000       0.06666667 </v>
   </varray>
  </crystal>
  <varray name="positions" >
   <v>       0.22222223       0.11111111       0.25000000 </v>
   <v>       0.55555556       0.11111111       0.25000000 </v>
   <v>       0.88888890       0.11111111       0.25000000 </v>
   <v>       0.22222223       0.44444445       0.25000000 </v>
   <v>       0.55555556       0.44444445       0.25000000 </v>
   <v>       0.88888890       0.44444445       0.25000000 </v>
   <v>       0.22222223       0.77777778       0.25000000 </v>
   <v>       0.55555556       0.77777778       0.25000000 </v>
   <v>       0.88888890       0.77777778       0.25000000 </v>
   <v>       0.11054878       0.22222223       0.35358979 </v>
   <v>       0.44444445       0.22222223       0.35415213 </v>
   <v>       0.77777778       0.22222223       0.35415213 </v>
   <v>       0.11111111       0.55555556       0.35415213 </v>
   <v>       0.44444445       0.55555556       0.35415213 </v>
   <v>       0.77777778       0.55555556       0.35415213 </v>
   <v>       0.11111111       0.88888890       0.35415213 </v>
   <v>       0.44444445       0.88888890       0.35415213 </v>
   <v>       0.77777778       0.88888890       0.35415213 </v>
   <v>       0.11111111       0.22222223       0.14584787 </v>
   <v>       0.44444445       0.22222223       0.14584787 </v>
   <v>       0.77777778       0.22222223       0.14584787 </v>
   <v>       0.11111111       0.55555556       0.14584787 </v>
   <v>       0.44444445       0.55555556       0.14584787 </v>
   <v>       0.77777778       0.55555556       0.14584787 </v>
   <v>       0.11111111       0.88888890       0.14584787 </v>
   <v>       0.44444445       0.88888890       0.14584787 </v>
   <v>       0.77777778       0.88888890       0.14584787 </v>
  </varray>
 </structure>
</modeling>
