unknown system                          
   1.00000000000000     
     3.183860    0.000000    0.000000
    -1.591930    2.757304    0.000000
     0.000000    0.000000   15.000000
   Mo   S 
     1     2
Direct
  0.666667  0.333333  0.250000
  0.333333  0.666667  0.354152
  0.333333  0.666667  0.145848
 
   28   28  120
 0.19211     0.19395     0.19942     0.20887     0.22250     0.24018     0.26166     0.28522     0.31111     0.33682    
 0.36076     0.38172     0.39881     0.40927     0.41255     0.40878     0.39874     0.38337     0.36226     0.33753    
 0.31102     0.28503     0.26057     0.23970     0.22251     0.20914     0.19967     0.19397     0.19390     0.19400    
 0.19669     0.20205     0.21033     0.22203     0.23660     0.25441     0.27297     0.29222     0.31071     0.32739    
 0.34064     0.35053     0.35546     0.35522     0.35001     0.34033     0.32752     0.31141     0.29276     0.27281    
 0.25372     0.23625     0.22172     0.21048     0.20207     0.19662     0.19936     0.19872     0.19958     0.20216    
 0.20645     0.21301     0.22178     0.23219     0.24510     0.25893     0.27153     0.28236     0.29132     0.29785    
 0.30199     0.30337     0.30162     0.29768     0.29058     0.28156     0.27070     0.25905     0.24591     0.23327    
 0.22189     0.21310     0.20661     0.20211     0.20883     0.20810     0.20849     0.20922     0.21060     0.21332    
 0.21736     0.22269     0.22823     0.23502     0.24267     0.24887     0.25168     0.25356     0.25490     0.25555    
 0.25562     0.25486     0.25383     0.25110     0.24694     0.24153     0.23606     0.22948     0.22278     0.21723    
 0.21336     0.21064     0.22253     0.22258     0.22303     0.22316     0.22253     0.22189     0.22252     0.22291    
 0.22373     0.22420     0.22496     0.22438     0.22239     0.21903     0.21548     0.21252     0.21122     0.21294    
 0.21641     0.22006     0.22239     0.22421     0.22494     0.22482     0.22366     0.22236     0.22222     0.22248    
 0.24037     0.24238     0.24384     0.24447     0.24284     0.23957     0.23623     0.23392     0.22990     0.22474    
 0.21960     0.21351     0.20474     0.19507     0.18502     0.17673     0.17123     0.17035     0.17627     0.18656    
 0.19671     0.20474     0.21287     0.21995     0.22480     0.22857     0.23247     0.23702     0.26189     0.26725    
 0.27062     0.27262     0.27192     0.26700     0.26029     0.25296     0.24595     0.23649     0.22563     0.21321    
 0.19958     0.18315     0.16566     0.15068     0.14007     0.13519     0.13792     0.14966     0.16682     0.18412    
 0.19891     0.21353     0.22624     0.23567     0.24454     0.25362     0.28548     0.29681     0.30299     0.30777    
 0.30832     0.30485     0.29507     0.28495     0.27209     0.25836     0.24169     0.22527     0.20545     0.18426    
 0.15873     0.13677     0.11956     0.10992     0.10795     0.11794     0.13611     0.15958     0.18248     0.20489    
 0.22539     0.24355     0.25728     0.27222     0.31108     0.32844     0.34054     0.34798     0.35194     0.35000    
 0.34113     0.32678     0.31116     0.29247     0.27027     0.24630     0.22245     0.19644     0.16614     0.13552    
 0.11149     0.96133E-01 0.89402E-01 0.94098E-01 0.11150     0.13731     0.16556     0.19427     0.22244     0.24889    
 0.27107     0.29107     0.33654     0.36100     0.38084     0.39314     0.40060     0.40165     0.39465     0.37980    
 0.36048     0.33785     0.31145     0.28144     0.25057     0.21962     0.18619     0.14946     0.11762     0.94225E-01
 0.82250E-01 0.81440E-01 0.94878E-01 0.11946     0.15128     0.18427     0.21838     0.25185     0.28305     0.30988    
 0.36057     0.39262     0.42039     0.44056     0.45317     0.45834     0.45459     0.43996     0.41883     0.39320    
 0.36294     0.32753     0.29058     0.25346     0.21659     0.17677     0.13858     0.10841     0.88517E-01 0.80606E-01
 0.87643E-01 0.10957     0.14098     0.17691     0.21470     0.25342     0.29228     0.32741     0.38174     0.42137    
 0.45725     0.48654     0.50512     0.51626     0.51660     0.50646     0.48395     0.45590     0.42217     0.38397    
 0.34068     0.29777     0.25501     0.21357     0.17129     0.13553     0.10910     0.94785E-01 0.92864E-01 0.10761    
 0.13586     0.17258     0.21205     0.25457     0.29822     0.34181     0.39884     0.44519     0.48889     0.52574    
 0.55438     0.57246     0.57976     0.57354     0.55459     0.52464     0.48810     0.44573     0.39888     0.35003    
 0.30182     0.25536     0.21130     0.17159     0.14038     0.11974     0.11153     0.11779     0.13885     0.17169    
 0.21130     0.25461     0.30203     0.35121     0.40936     0.46272     0.51295     0.55923     0.59727     0.62246    
 0.63564     0.63677     0.62368     0.59684     0.55887     0.51340     0.46274     0.40879     0.35516     0.30316    
 0.25481     0.21144     0.17638     0.15149     0.13787     0.13671     0.15027     0.17648     0.21241     0.25474    
 0.30283     0.35573     0.41274     0.47173     0.52866     0.58321     0.62815     0.66015     0.68002     0.68660    
 0.68066     0.66125     0.62873     0.58311     0.52899     0.47151     0.41272     0.35562     0.30192     0.25439    
 0.21456     0.18461     0.16628     0.16041     0.16670     0.18574     0.21565     0.25456     0.30166     0.35542    
 0.40900     0.47155     0.53435     0.59567     0.64691     0.68667     0.71506     0.72995     0.72909     0.71404    
 0.68653     0.64775     0.59562     0.53425     0.47176     0.40956     0.35109     0.29814     0.25378     0.21882    
 0.19453     0.18232     0.18345     0.19594     0.21949     0.25365     0.29802     0.35065     0.39880     0.46250    
 0.52876     0.59568     0.65305     0.69971     0.73727     0.76061     0.76824     0.75962     0.73638     0.69959    
 0.65320     0.59508     0.52878     0.46300     0.39877     0.34151     0.29226     0.25240     0.22237     0.20421    
 0.19825     0.20490     0.22236     0.25119     0.29162     0.34154     0.38322     0.44519     0.51321     0.58310    
 0.64748     0.69914     0.74446     0.77664     0.79321     0.79138     0.77574     0.74452     0.70026     0.64605    
 0.58303     0.51302     0.44612     0.38091     0.32752     0.28309     0.24958     0.22429     0.21318     0.21288    
 0.22520     0.24713     0.28220     0.32752     0.36195     0.42194     0.48796     0.55921     0.62866     0.68624    
 0.73580     0.77519     0.80042     0.80841     0.79986     0.77592     0.73758     0.68638     0.62754     0.55943    
 0.48919     0.42165     0.35971     0.30998     0.27139     0.24348     0.22546     0.22041     0.22613     0.24244    
 0.27000     0.31077     0.33728     0.39321     0.45626     0.52538     0.59734     0.66154     0.71419     0.76003    
 0.79148     0.80775     0.80697     0.79235     0.76089     0.71563     0.65992     0.59688     0.52644     0.45786    
 0.39193     0.33632     0.29130     0.25801     0.23520     0.22487     0.22540     0.23669     0.25752     0.29160    
 0.31108     0.36105     0.41955     0.48468     0.55445     0.62357     0.68086     0.72928     0.76818     0.79223    
 0.79919     0.79057     0.76822     0.73057     0.68043     0.62197     0.55445     0.48679     0.42049     0.36034    
 0.31105     0.27285     0.24459     0.22809     0.22367     0.22975     0.24538     0.27192     0.28523     0.32769    
 0.38062     0.43996     0.50554     0.57285     0.63660     0.68731     0.73042     0.76056     0.77651     0.77514    
 0.75978     0.72976     0.68803     0.63489     0.57242     0.50491     0.44146     0.37995     0.32855     0.28547    
 0.25444     0.23178     0.22223     0.22245     0.23353     0.25303     0.26084     0.29596     0.34104     0.39395    
 0.45358     0.51610     0.57923     0.63521     0.68009     0.71556     0.73794     0.74458     0.73647     0.71484    
 0.68096     0.63614     0.57885     0.51601     0.45350     0.39311     0.34025     0.29679     0.26226     0.23697    
 0.22168     0.21705     0.22239     0.23658     0.23988     0.26700     0.30407     0.34923     0.40137     0.45859    
 0.51660     0.57307     0.62207     0.65967     0.68667     0.70087     0.70022     0.68639     0.66069     0.62327    
 0.57350     0.51635     0.45894     0.40088     0.34806     0.30263     0.26758     0.24046     0.22233     0.21312    
 0.21346     0.22218     0.22255     0.24248     0.27118     0.30795     0.35188     0.40124     0.45444     0.50587    
 0.55453     0.59644     0.62752     0.64631     0.65312     0.64675     0.62801     0.59704     0.55432     0.50632    
 0.45492     0.40193     0.35192     0.30744     0.27065     0.24250     0.22255     0.21048     0.20680     0.21075    
 0.20910     0.22284     0.24416     0.27262     0.30786     0.34877     0.39387     0.44143     0.48605     0.52568    
 0.55907     0.58307     0.59510     0.59524     0.58317     0.55882     0.52486     0.48475     0.44058     0.39476    
 0.35000     0.30805     0.27262     0.24380     0.22271     0.20874     0.20203     0.20215     0.19960     0.20824    
 0.22311     0.24412     0.27132     0.30345     0.34029     0.37910     0.41977     0.45751     0.48935     0.51320    
 0.52895     0.53401     0.52886     0.51332     0.48897     0.45654     0.41856     0.37917     0.34066     0.30459    
 0.27185     0.24446     0.22319     0.20807     0.19944     0.19655     0.19392     0.19867     0.20830     0.22304    
 0.24288     0.26756     0.29590     0.32765     0.35981     0.39189     0.42181     0.44665     0.46327     0.47183    
 0.47171     0.46326     0.44649     0.42202     0.39267     0.35996     0.32677     0.29515     0.26727     0.24301    
 0.22328     0.20846     0.19862     0.19388     0.25849     0.26147     0.27039     0.28583     0.30819     0.33751    
 0.37320     0.41336     0.45674     0.50043     0.54140     0.57699     0.60539     0.62290     0.62862     0.62258    
 0.60539     0.57856     0.54288     0.50111     0.45676     0.41301     0.37212     0.33702     0.30820     0.28610    
 0.27062     0.26151     0.26141     0.26153     0.26564     0.27408     0.28742     0.30641     0.33064     0.36008    
 0.39209     0.42526     0.45751     0.48698     0.51052     0.52795     0.53685     0.53649     0.52733     0.51029    
 0.48704     0.45852     0.42586     0.39185     0.35943     0.33020     0.30607     0.28758     0.27413     0.26557    
 0.27034     0.26937     0.27058     0.27419     0.28061     0.29075     0.30489     0.32255     0.34421     0.36809    
 0.39134     0.41181     0.42991     0.44397     0.45293     0.45600     0.45256     0.44373     0.42925     0.41090    
 0.39022     0.36819     0.34510     0.32368     0.30507     0.29087     0.28078     0.27414     0.28580     0.28511    
 0.28555     0.28618     0.28773     0.29116     0.29700     0.30528     0.31525     0.32764     0.34175     0.35498    
 0.36539     0.37320     0.37865     0.38131     0.38151     0.37863     0.37345     0.36468     0.35310     0.34062    
 0.32883     0.31645     0.30543     0.29678     0.29122     0.28769     0.30823     0.30933     0.31020     0.30994    
 0.30819     0.30621     0.30564     0.30556     0.30652     0.30860     0.31158     0.31472     0.31729     0.31725    
 0.31689     0.31651     0.31615     0.31680     0.31790     0.31837     0.31724     0.31449     0.31150     0.30918    
 0.30654     0.30494     0.30539     0.30689     0.33771     0.34229     0.34515     0.34586     0.34280     0.33694    
 0.33024     0.32443     0.31699     0.30905     0.30181     0.29595     0.28786     0.27875     0.27094     0.26540    
 0.26178     0.26092     0.26497     0.27255     0.28049     0.28795     0.29520     0.30231     0.30916     0.31554    
 0.32286     0.33100     0.37349     0.38362     0.39000     0.39314     0.39128     0.38328     0.37169     0.35861    
 0.34501     0.32940     0.31229     0.29557     0.27875     0.25957     0.24267     0.23001     0.22133     0.21706    
 0.21907     0.22885     0.24388     0.26053     0.27808     0.29594     0.31283     0.32840     0.34360     0.35937    
 0.41362     0.43233     0.44396     0.45148     0.45227     0.44590     0.43075     0.41301     0.39116     0.36736    
 0.34071     0.31571     0.28869     0.26069     0.23291     0.21122     0.19541     0.18633     0.18437     0.19357    
 0.21079     0.23373     0.25893     0.28795     0.31589     0.34264     0.36652     0.39105     0.45680     0.48520    
 0.50569     0.51837     0.52407     0.52039     0.50613     0.48334     0.45675     0.42572     0.38983     0.35233    
 0.31726     0.28024     0.24313     0.21020     0.18534     0.16976     0.16285     0.16762     0.18535     0.21193    
 0.24255     0.27795     0.31725     0.35515     0.39055     0.42412     0.50015     0.53964     0.57166     0.59256    
 0.60469     0.60573     0.59441     0.57076     0.53935     0.50128     0.45841     0.41092     0.36413     0.31791    
 0.27217     0.22857     0.19332     0.16774     0.15473     0.15382     0.16851     0.19522     0.23063     0.27004    
 0.31670     0.36542     0.41260     0.45680     0.54107     0.59249     0.63713     0.66971     0.68998     0.69788    
 0.69145     0.66878     0.63508     0.59336     0.54377     0.48692     0.42921     0.37307     0.31801     0.26562    
 0.21972     0.18478     0.16193     0.15293     0.16100     0.18595     0.22229     0.26569     0.31606     0.37301    
 0.43097     0.48696     0.57691     0.64059     0.69768     0.74460     0.77658     0.79441     0.79481     0.77799    
 0.74253     0.69615     0.64104     0.57949     0.51062     0.44384     0.37884     0.31739     0.26193     0.21742    
 0.18555     0.16836     0.16635     0.18399     0.21780     0.26319     0.31594     0.37831     0.44440     0.51176    
 0.60545     0.67995     0.75047     0.81180     0.85695     0.88485     0.89559     0.88600     0.85680     0.81019    
 0.75023     0.68031     0.60540     0.52752     0.45262     0.38139     0.31612     0.26223     0.22159     0.19551    
 0.18536     0.19345     0.22001     0.26233     0.31618     0.38046     0.45291     0.52866     0.62308     0.70864    
 0.79192     0.86555     0.92418     0.96665     0.98915     0.99056     0.96789     0.92441     0.86481     0.79239    
 0.70882     0.62238     0.53659     0.45561     0.38065     0.31532     0.26508     0.23091     0.21254     0.21143    
 0.22945     0.26522     0.31629     0.38060     0.45536     0.53712     0.62880     0.72374     0.81794     0.90322    
 0.97755      1.0359      1.0725      1.0848      1.0731      1.0368     0.97806     0.90333     0.81799     0.72369    
 0.62864     0.53720     0.45275     0.37814     0.31589     0.27045     0.24326     0.23456     0.24377     0.27173    
 0.31704     0.37827     0.45253     0.53683     0.62262     0.72361     0.82698     0.92327      1.0117      1.0851    
  1.1355      1.1610      1.1602      1.1346      1.0851      1.0125     0.92347     0.82672     0.72396     0.62308    
 0.52858     0.44428     0.37341     0.31716     0.27821     0.25878     0.25989     0.27965     0.31775     0.37331    
 0.44420     0.52806     0.60541     0.70854     0.81786     0.92343      1.0233      1.1096      1.1739      1.2128    
  1.2253      1.2117      1.1728      1.1096      1.0232     0.92286     0.81784     0.70918     0.60537     0.51137    
 0.43104     0.36594     0.31724     0.28718     0.27740     0.28802     0.31728     0.36479     0.43021     0.51148    
 0.57867     0.67972     0.79214     0.90326      1.0122      1.1089      1.1861      1.2391      1.2664      1.2644    
  1.2384      1.1862      1.1104      1.0106     0.90330     0.79182     0.68076     0.57624     0.48695     0.41268    
 0.35586     0.31472     0.29558     0.29520     0.31569     0.35308     0.41175     0.48703     0.54268     0.64081    
 0.75008     0.86524     0.97808      1.0847      1.1724      1.2377      1.2790      1.2929      1.2783      1.2385    
  1.1740      1.0849     0.97679     0.86550     0.75145     0.64042     0.54038     0.45676     0.39106     0.34244    
 0.31212     0.30268     0.31283     0.34146     0.38967     0.45758     0.50079     0.59338     0.69655     0.81095    
 0.92480      1.0371      1.1347      1.2120      1.2645      1.2920      1.2912      1.2656      1.2129      1.1364    
  1.0352     0.92447     0.81190     0.69844     0.59184     0.49988     0.42433     0.36730     0.32787     0.30930    
 0.30975     0.32960     0.36648     0.42473     0.45671     0.53985     0.63585     0.74325     0.85675     0.96782    
  1.0734      1.1603      1.2254      1.2655      1.2777      1.2635      1.2253      1.1618      1.0729     0.96618    
 0.85672     0.74546     0.63686     0.53908     0.45668     0.39183     0.34361     0.31507     0.30646     0.31682    
 0.34447     0.39096     0.41334     0.48428     0.57168     0.66878     0.77699     0.88530     0.99017      1.0855    
  1.1615      1.2125      1.2391      1.2376      1.2119      1.1609      1.0863     0.98848     0.88474     0.77645    
 0.67032     0.57101     0.48515     0.41373     0.36013     0.32216     0.30481     0.30509     0.32400     0.35862    
 0.37234     0.43160     0.50610     0.59355     0.69049     0.79411     0.89521     0.98870      1.0726      1.1363    
  1.1746      1.1862      1.1731      1.1353      1.0735     0.98977     0.89467     0.79412     0.69036     0.59269    
 0.50522     0.43241     0.37382     0.33104     0.30474     0.29663     0.30551     0.33064     0.33722     0.38329    
 0.44510     0.51962     0.60539     0.69826     0.79470     0.88548     0.96626      1.0349      1.0852      1.1108    
  1.1102      1.0847      1.0365     0.96735     0.88591     0.79452     0.69854     0.60498     0.51835     0.44367    
 0.38392     0.33784     0.30671     0.29095     0.29131     0.30652     0.30823     0.34241     0.39057     0.45177    
 0.52411     0.60523     0.69139     0.77739     0.85682     0.92400     0.97684      1.0109      1.0233      1.0115    
 0.97741     0.92406     0.85694     0.77779     0.69183     0.60602     0.52406     0.45121     0.38995     0.34248    
 0.30819     0.28757     0.28093     0.28789     0.28608     0.30961     0.34551     0.39311     0.45164     0.51917    
 0.59346     0.67034     0.74472     0.81114     0.86508     0.90331     0.92281     0.92283     0.90314     0.86503    
 0.81081     0.74278     0.66969     0.59438     0.52046     0.45193     0.39310     0.34515     0.30947     0.28572    
 0.27407     0.27418     0.27057     0.28528     0.31028     0.34549     0.39072     0.44441     0.50528     0.57010    
 0.63607     0.69802     0.75156     0.79207     0.81802     0.82661     0.81815     0.79243     0.75060     0.69687    
 0.63522     0.56982     0.50584     0.44550     0.39131     0.34583     0.31036     0.28507     0.27039     0.26551    
 0.26145     0.26933     0.28535     0.30980     0.34284     0.38391     0.43155     0.48420     0.53854     0.59183    
 0.64070     0.68134     0.70942     0.72391     0.72371     0.70908     0.68128     0.64132     0.59252     0.53863    
 0.48343     0.43072     0.38363     0.34293     0.31009     0.28552     0.26931     0.26138     0.34351     0.34865    
 0.36409     0.39043     0.42806     0.47663     0.53514     0.60031     0.67060     0.74090     0.80697     0.86483    
 0.91094     0.93989     0.94947     0.93933     0.91085     0.86670     0.80866     0.74170     0.67049     0.60011    
 0.53391     0.47609     0.42806     0.39074     0.36436     0.34867     0.34859     0.34871     0.35581     0.37035    
 0.39305     0.42480     0.46486     0.51303     0.56533     0.62018     0.67410     0.72373     0.76487     0.79523    
 0.81099     0.81072     0.79466     0.76455     0.72388     0.67486     0.62078     0.56514     0.51224     0.46447    
 0.42445     0.39322     0.37038     0.35574     0.36402     0.36228     0.36427     0.37048     0.38148     0.39858    
 0.42212     0.45147     0.48731     0.52717     0.56761     0.60651     0.64166     0.66981     0.68835     0.69478    
 0.68793     0.66964     0.64084     0.60562     0.56666     0.52728     0.48821     0.45269     0.42225     0.39869    
 0.38167     0.37042     0.39039     0.38933     0.38978     0.39083     0.39336     0.39894     0.40830     0.42206    
 0.43937     0.46177     0.48882     0.51736     0.54362     0.56778     0.58682     0.59735     0.59743     0.58679    
 0.56807     0.54297     0.51517     0.48754     0.46294     0.44079     0.42216     0.40817     0.39898     0.39340    
 0.42809     0.43028     0.43159     0.43092     0.42809     0.42466     0.42296     0.42230     0.42452     0.42991    
 0.44035     0.45471     0.47236     0.49105     0.50818     0.52007     0.52415     0.52053     0.50921     0.49218    
 0.47237     0.45455     0.44035     0.43060     0.42444     0.42169     0.42262     0.42531     0.47684     0.48501    
 0.48986     0.49056     0.48551     0.47593     0.46444     0.45343     0.44127     0.43053     0.42471     0.42477    
 0.42959     0.43987     0.45235     0.46380     0.46978     0.46880     0.46328     0.45405     0.44170     0.42961    
 0.42406     0.42510     0.43058     0.43977     0.45180     0.46532     0.53538     0.55249     0.56339     0.56806    
 0.56482     0.55220     0.53359     0.51138     0.48825     0.46344     0.44114     0.42445     0.41619     0.41480    
 0.41923     0.42755     0.43472     0.43638     0.43234     0.42642     0.42052     0.41588     0.41545     0.42480    
 0.44179     0.46251     0.48669     0.51213     0.60060     0.63096     0.65043     0.66226     0.66286     0.65249    
 0.62902     0.60001     0.56431     0.52649     0.48774     0.45576     0.43042     0.41604     0.40797     0.40981    
 0.41507     0.41901     0.41683     0.41329     0.40909     0.40893     0.41406     0.42978     0.45585     0.48979    
 0.52531     0.56448     0.67056     0.71557     0.74872     0.76928     0.77785     0.77153     0.74939     0.71373    
 0.67065     0.62044     0.56616     0.51445     0.47243     0.44141     0.41978     0.40845     0.40782     0.41131    
 0.41163     0.40906     0.40783     0.41042     0.41912     0.43899     0.47241     0.51735     0.56708     0.61890    
 0.74060     0.80261     0.85317     0.88687     0.90544     0.90661     0.88854     0.85204     0.80205     0.74207    
 0.67492     0.60547     0.54236     0.49167     0.45364     0.42621     0.41293     0.40920     0.40971     0.40882    
 0.40992     0.41496     0.42822     0.45152     0.49031     0.54380     0.60727     0.67317     0.80678     0.88719    
 0.95699      1.0093      1.0421      1.0542      1.0437      1.0086     0.95528     0.88785     0.80943     0.72390    
 0.64084     0.56766     0.50940     0.46384     0.43307     0.41734     0.41065     0.40789     0.40968     0.41862    
 0.43573     0.46400     0.50731     0.56762     0.64272     0.72375     0.86489     0.96411      1.0547      1.1291    
  1.1796      1.2075      1.2078      1.1811      1.1262      1.0532     0.96501     0.86738     0.76496     0.66974    
 0.58695     0.52122     0.46984     0.43675     0.41811     0.40982     0.40769     0.41645     0.43712     0.47127    
 0.51954     0.58647     0.67023     0.76618     0.91097      1.0280      1.1397      1.2362      1.3116      1.3595    
  1.3772      1.3607      1.3119      1.2350      1.1388      1.0286     0.91102     0.79470     0.68818     0.59714    
 0.52424     0.47017     0.43506     0.41528     0.40786     0.41311     0.43337     0.47028     0.52424     0.59631    
 0.68840     0.79599     0.93995      1.0743      1.2056      1.3273      1.4289      1.4999      1.5372      1.5385    
  1.5013      1.4284      1.3269      1.2061      1.0743     0.93933     0.81065     0.69456     0.59652     0.51887    
 0.46341     0.42846     0.41104     0.40976     0.42710     0.46352     0.51993     0.59646     0.69418     0.81128    
 0.94967      1.0984      1.2482      1.3932      1.5188      1.6148      1.6761      1.6970      1.6768      1.6161    
  1.5195      1.3931      1.2485      1.0982     0.94966     0.81116     0.68827     0.58626     0.50717     0.45190    
 0.41990     0.40984     0.42039     0.45314     0.50836     0.58645     0.68799     0.81093     0.93955      1.0982    
  1.2632      1.4278      1.5758      1.6985      1.7883      1.8360      1.8350      1.7872      1.6983      1.5768    
  1.4277      1.2631      1.0984     0.94020     0.79584     0.67014     0.56802     0.49082     0.43927     0.41388    
 0.41514     0.44087     0.49154     0.56787     0.67001     0.79539     0.91092      1.0741      1.2483      1.4278    
  1.5952      1.7420      1.8613      1.9384      1.9647      1.9373      1.8603      1.7418      1.5954      1.4271    
  1.2483      1.0747     0.91089     0.76584     0.64270     0.54443     0.47234     0.42900     0.41471     0.42981    
 0.47232     0.54305     0.64199     0.76592     0.86656      1.0279      1.2059      1.3931      1.5765      1.7413    
  1.8862      1.9930      2.0496      2.0475      1.9920      1.8863      1.7426      1.5748      1.3930      1.2057    
  1.0290     0.86394     0.72388     0.60732     0.51814     0.45461     0.42441     0.42408     0.45567     0.51536    
 0.60632     0.72389     0.80833     0.96476      1.1386      1.3273      1.5194      1.6980      1.8597      1.9913    
  2.0776      2.1069      2.0770      1.9922      1.8617      1.6982      1.5182      1.3275      1.1400     0.96443    
 0.80580     0.67329     0.56745     0.48972     0.44091     0.42562     0.44169     0.48857     0.56586     0.67416    
 0.74144     0.88786      1.0536      1.2359      1.4290      1.6164      1.7873      1.9377      2.0476      2.1061    
  2.1053      2.0486      1.9387      1.7890      1.6146      1.4284      1.2371      1.0554     0.88641     0.74034    
 0.61916     0.52614     0.46198     0.43065     0.43126     0.46367     0.52556     0.61947     0.67056     0.80268    
 0.95608      1.1270      1.3117      1.5012      1.6771      1.8353      1.9647      2.0485      2.0762      2.0466    
  1.9647      1.8368      1.6766      1.4994      1.3117      1.1294     0.95712     0.80186     0.67054     0.56520    
 0.48674     0.43922     0.42445     0.44111     0.48762     0.56412     0.60032     0.71474     0.85294      1.0086    
  1.1800      1.3600      1.5383      1.6978      1.8366      1.9384      1.9929      1.9913      1.9374      1.8358    
  1.6987      1.5363      1.3595      1.1794      1.0104     0.85215     0.71571     0.60058     0.51306     0.45101    
 0.42154     0.42179     0.45301     0.51145     0.53421     0.63001     0.74929     0.88777      1.0425      1.2073    
  1.3766      1.5367      1.6762      1.7889      1.8621      1.8864      1.8604      1.7881      1.6772      1.5378    
  1.3762      1.2072      1.0425     0.88684     0.74838     0.63093     0.53581     0.46527     0.42200     0.40796    
 0.42281     0.46484     0.47628     0.55220     0.65164     0.77068     0.90630      1.0545      1.2078      1.3602    
  1.4994      1.6143      1.6985      1.7433      1.7426      1.6982      1.6154      1.5008      1.3607      1.2075    
  1.0549     0.90576     0.76937     0.65001     0.55287     0.47694     0.42513     0.39870     0.39910     0.42497    
 0.42812     0.48511     0.56400     0.66246     0.77779     0.90615      1.0435      1.1804      1.3118      1.4279    
  1.5181      1.5752      1.5953      1.5757      1.5187      1.4287      1.3116      1.1809      1.0440     0.90693    
 0.77783     0.66188     0.56341     0.48515     0.42812     0.39322     0.38188     0.39353     0.39070     0.43057    
 0.49022     0.56806     0.66235     0.77015     0.88768      1.0103      1.1286      1.2362      1.3271      1.3930    
  1.4271      1.4273      1.3932      1.3268      1.2353      1.1272      1.0093     0.88867     0.77152     0.66256    
 0.56806     0.48982     0.43043     0.39029     0.37033     0.37046     0.36429     0.38949     0.43168     0.49017    
 0.56415     0.65092     0.74843     0.85121     0.95633      1.0550      1.1402      1.2059      1.2485      1.2628    
  1.2484      1.2060      1.1398      1.0539     0.95496     0.85132     0.74885     0.65220     0.56475     0.49055    
 0.43177     0.38930     0.36411     0.35565     0.34861     0.36222     0.38957     0.43079     0.48557     0.55284    
 0.62994     0.71470     0.80126     0.88636     0.96461      1.0296      1.0749      1.0985      1.0984      1.0749    
  1.0294     0.96483     0.88725     0.80146     0.71372     0.62912     0.55251     0.48570     0.43106     0.38974    
 0.36216     0.34857     0.45597     0.46468     0.49066     0.53423     0.59514     0.67245     0.76409     0.86614    
 0.97490      1.0843      1.1876      1.2780      1.3496      1.3947      1.4099      1.3944      1.3496      1.2798    
  1.1893      1.0851     0.97493     0.86575     0.76287     0.67190     0.59516     0.53454     0.49093     0.46472    
 0.46461     0.46474     0.47701     0.50182     0.53970     0.59119     0.65513     0.73040     0.81252     0.89791    
 0.98181      1.0592      1.1231      1.1701      1.1946      1.1942      1.1694      1.1229      1.0593     0.98294    
 0.89857     0.81223     0.72966     0.65462     0.59080     0.53988     0.50187     0.47693     0.49061     0.48722    
 0.49088     0.50193     0.52114     0.54976     0.58816     0.63555     0.69188     0.75417     0.81770     0.87799    
 0.93271     0.97660      1.0052      1.0151      1.0048     0.97635     0.93198     0.87698     0.81641     0.75425    
 0.69288     0.63683     0.58837     0.54990     0.52134     0.50189     0.53420     0.53177     0.53226     0.53463    
 0.54005     0.55024     0.56638     0.58910     0.61789     0.65371     0.69554     0.73946     0.78115     0.81765    