unknown system                          
   1.00000000000000     
     3.183860    0.000000    0.000000
    -1.591930    2.757304    0.000000
     0.000000    0.000000   15.000000
   Mo   S 
     1     2
Direct
  0.666667  0.333333  0.250000
  0.333333  0.666667  0.354152
  0.333333  0.666667  0.145848
 
   28   28  120
 0.19210631726E+00 0.19394993831E+00 0.19942202759E+00 0.20886538178E+00 0.22250277201E+00
 0.24018244394E+00 0.26165715040E+00 0.28522212901E+00 0.31111414261E+00 0.33681640958E+00
 0.36076210739E+00 0.38171783044E+00 0.39881092948E+00 0.40927225990E+00 0.41254558882E+00
 0.40878490150E+00 0.39874332413E+00 0.38337363137E+00 0.36226379315E+00 0.33753213657E+00
 0.31101555557E+00 0.28503455940E+00 0.26056657673E+00 0.23970246442E+00 0.22250805503E+00
 0.20914485236E+00 0.19966680350E+00 0.19397231706E+00 0.19389510846E+00 0.19400176748E+00
 0.19668593067E+00 0.20205292985E+00 0.21033441885E+00 0.22203379876E+00 0.23659727754E+00
 0.25440715547E+00 0.27297373266E+00 0.29221779119E+00 0.31071469692E+00 0.32739352554E+00
 0.34063618993E+00 0.35053343057E+00 0.35546418307E+00 0.35522032745E+00 0.35000538208E+00
 0.34033197757E+00 0.32752402478E+00 0.31140608503E+00 0.29276492474E+00 0.27281251031E+00
 0.25371936764E+00 0.23625450817E+00 0.22171796942E+00 0.21047958902E+00 0.20207465464E+00
 0.19661787965E+00 0.19935775752E+00 0.19872269711E+00 0.19957866867E+00 0.20216396698E+00
 0.20644533519E+00 0.21301096740E+00 0.22177924755E+00 0.23219384224E+00 0.24510440183E+00
 0.25893482006E+00 0.27153007213E+00 0.28236164793E+00 0.29132335514E+00 0.29784614476E+00
 0.30199262138E+00 0.30336813344E+00 0.30161807636E+00 0.29768315749E+00 0.29058294679E+00
 0.28156248317E+00 0.27069737586E+00 0.25904851260E+00 0.24591256343E+00 0.23326969652E+00
 0.22189262448E+00 0.21310388300E+00 0.20660914348E+00 0.20211187688E+00 0.20882906570E+00
 0.20809615919E+00 0.20849361514E+00 0.20921993065E+00 0.21059936329E+00 0.21331812759E+00
 0.21735512415E+00 0.22269404372E+00 0.22822600138E+00 0.23502227663E+00 0.24267458251E+00
 0.24887453234E+00 0.25167741347E+00 0.25356424253E+00 0.25489509810E+00 0.25555398853E+00
 0.25562459743E+00 0.25485718927E+00 0.25382810835E+00 0.25109830014E+00 0.24693687747E+00
 0.24152677346E+00 0.23605679392E+00 0.22948004858E+00 0.22277895248E+00 0.21723159149E+00
 0.21335666280E+00 0.21064265834E+00 0.22253013312E+00 0.22257921019E+00 0.22303196647E+00
 0.22315589616E+00 0.22252765417E+00 0.22189469532E+00 0.22251545917E+00 0.22291315511E+00
 0.22373173206E+00 0.22420224645E+00 0.22495899272E+00 0.22437932649E+00 0.22238871792E+00
 0.21902564022E+00 0.21547643177E+00 0.21252222681E+00 0.21121777749E+00 0.21294229755E+00
 0.21641300421E+00 0.22006074381E+00 0.22239375486E+00 0.22421192508E+00 0.22493539316E+00
 0.22481809071E+00 0.22365867841E+00 0.22236034402E+00 0.22222376894E+00 0.22248411405E+00
 0.24037402247E+00 0.24237610199E+00 0.24383869459E+00 0.24447078881E+00 0.24283570878E+00
 0.23956598380E+00 0.23622503931E+00 0.23391687544E+00 0.22989516462E+00 0.22473876777E+00
 0.21959658295E+00 0.21351356866E+00 0.20474179312E+00 0.19507420615E+00 0.18502074023E+00
 0.17673001286E+00 0.17123079619E+00 0.17035112734E+00 0.17626706187E+00 0.18656142871E+00
 0.19671080317E+00 0.20473970509E+00 0.21286636521E+00 0.21995041588E+00 0.22480080829E+00
 0.22856745345E+00 0.23247004537E+00 0.23701617361E+00 0.26188907980E+00 0.26724572094E+00
 0.27062403428E+00 0.27261587660E+00 0.27192042617E+00 0.26699635475E+00 0.26028576952E+00
 0.25296373101E+00 0.24594858094E+00 0.23648976556E+00 0.22562638078E+00 0.21321174389E+00
 0.19958111552E+00 0.18314542232E+00 0.16566321067E+00 0.15067671111E+00 0.14006975283E+00
 0.13519076134E+00 0.13791969427E+00 0.14965811732E+00 0.16682001310E+00 0.18411871044E+00
 0.19891322995E+00 0.21353362777E+00 0.22623610552E+00 0.23567156751E+00 0.24454445429E+00
 0.25362396788E+00 0.28547640979E+00 0.29680928093E+00 0.30299136761E+00 0.30777002344E+00
 0.30831690355E+00 0.30484765907E+00 0.29507010745E+00 0.28495244818E+00 0.27208580551E+00
 0.25835803757E+00 0.24169447958E+00 0.22527164638E+00 0.20545144630E+00 0.18425766849E+00
 0.15872790953E+00 0.13676574355E+00 0.11955731083E+00 0.10991701951E+00 0.10795246963E+00
 0.11794315283E+00 0.13611070888E+00 0.15958344671E+00 0.18248069173E+00 0.20489420592E+00
 0.22538884494E+00 0.24354997344E+00 0.25727768514E+00 0.27221686718E+00 0.31108050879E+00
 0.32843820591E+00 0.34054471624E+00 0.34798281868E+00 0.35193664041E+00 0.34999871345E+00
 0.34112506804E+00 0.32677688586E+00 0.31115720920E+00 0.29247173519E+00 0.27026583642E+00
 0.24630119395E+00 0.22244676920E+00 0.19643520411E+00 0.16614366830E+00 0.13552024971E+00
 0.11148999736E+00 0.96132812122E-01 0.89402388257E-01 0.94098342511E-01 0.11150343193E+00
 0.13730937813E+00 0.16556340628E+00 0.19426654176E+00 0.22243780661E+00 0.24889362848E+00
 0.27107193059E+00 0.29106845421E+00 0.33653728953E+00 0.36099947006E+00 0.38083732535E+00
 0.39314219605E+00 0.40059795320E+00 0.40164843349E+00 0.39465285902E+00 0.37979675545E+00
 0.36047804012E+00 0.33784794624E+00 0.31145033351E+00 0.28143854553E+00 0.25057220664E+00
 0.21961583876E+00 0.18618814377E+00 0.14945883978E+00 0.11762045529E+00 0.94225365813E-01
 0.82250496922E-01 0.81440320805E-01 0.94877683045E-01 0.11945520313E+00 0.15128066388E+00
 0.18427375328E+00 0.21837876155E+00 0.25185215141E+00 0.28305185010E+00 0.30987865246E+00
 0.36056859410E+00 0.39262142175E+00 0.42038612183E+00 0.44055665360E+00 0.45317162257E+00
 0.45833554068E+00 0.45458802356E+00 0.43996102927E+00 0.41882861828E+00 0.39319557371E+00
 0.36293832035E+00 0.32753187578E+00 0.29057520308E+00 0.25345628111E+00 0.21659051687E+00
 0.17676823813E+00 0.13857912689E+00 0.10840537215E+00 0.88516559446E-01 0.80606395208E-01
 0.87642653703E-01 0.10956880603E+00 0.14098311113E+00 0.17691328071E+00 0.21469811019E+00
 0.25342153991E+00 0.29227768976E+00 0.32740606313E+00 0.38174423744E+00 0.42137200011E+00
 0.45724866843E+00 0.48653836168E+00 0.50511660232E+00 0.51625932813E+00 0.51659960950E+00
 0.50646270514E+00 0.48394674627E+00 0.45589980338E+00 0.42216615148E+00 0.38396677803E+00
 0.34068359267E+00 0.29777254245E+00 0.25500977746E+00 0.21357211807E+00 0.17129022818E+00
 0.13552817225E+00 0.10909913259E+00 0.94785071532E-01 0.92864041795E-01 0.10760870962E+00
 0.13586318718E+00 0.17257819799E+00 0.21205018911E+00 0.25457283214E+00 0.29822259151E+00
 0.34180756327E+00 0.39884457133E+00 0.44519117692E+00 0.48888764866E+00 0.52573980946E+00
 0.55437602508E+00 0.57246068195E+00 0.57976289205E+00 0.57354454434E+00 0.55458788612E+00
 0.52464327655E+00 0.48810141696E+00 0.44573391602E+00 0.39888403090E+00 0.35002717469E+00
 0.30182351013E+00 0.25535604868E+00 0.21130264029E+00 0.17158795386E+00 0.14037621557E+00
 0.11974159734E+00 0.11152748362E+00 0.11778515565E+00 0.13885086906E+00 0.17168763083E+00
 0.21130015917E+00 0.25461124764E+00 0.30203038900E+00 0.35120897056E+00 0.40936098551E+00
 0.46272349316E+00 0.51294937335E+00 0.55922947634E+00 0.59727312323E+00 0.62246166250E+00
 0.63564370236E+00 0.63677428897E+00 0.62368242962E+00 0.59683966695E+00 0.55887115788E+00
 0.51339759511E+00 0.46274322614E+00 0.40878903104E+00 0.35516188696E+00 0.30316140038E+00
 0.25480692214E+00 0.21144309427E+00 0.17638017619E+00 0.15149416753E+00 0.13787203524E+00
 0.13670897061E+00 0.15026736231E+00 0.17647774628E+00 0.21241279465E+00 0.25473917566E+00
 0.30282550698E+00 0.35572752912E+00 0.41274261136E+00 0.47173033088E+00 0.52866229025E+00
 0.58320837904E+00 0.62815378707E+00 0.66014581408E+00 0.68001918364E+00 0.68660290506E+00
 0.68066458940E+00 0.66125195099E+00 0.62873308038E+00 0.58310824509E+00 0.52899278993E+00
 0.47150598053E+00 0.41271880214E+00 0.35561986901E+00 0.30191946578E+00 0.25438571721E+00
 0.21456416875E+00 0.18461440749E+00 0.16627785719E+00 0.16041478801E+00 0.16670057752E+00
 0.18573697539E+00 0.21565479395E+00 0.25455848035E+00 0.30166087136E+00 0.35541566228E+00
 0.40900289060E+00 0.47154835364E+00 0.53434851385E+00 0.59567274049E+00 0.64690611446E+00
 0.68667347767E+00 0.71506264958E+00 0.72995177263E+00 0.72908690540E+00 0.71404139909E+00
 0.68652852855E+00 0.64774518512E+00 0.59561940527E+00 0.53425302858E+00 0.47176191942E+00
 0.40956038694E+00 0.35108986310E+00 0.29814335455E+00 0.25378190424E+00 0.21881829842E+00
 0.19452777020E+00 0.18232115157E+00 0.18345013084E+00 0.19594360330E+00 0.21949386132E+00
 0.25365066074E+00 0.29801722824E+00 0.35065104971E+00 0.39879902923E+00 0.46249628895E+00
 0.52876125483E+00 0.59568452301E+00 0.65305415278E+00 0.69971225566E+00 0.73727413491E+00
 0.76060789801E+00 0.76824111007E+00 0.75961885672E+00 0.73637525624E+00 0.69958656159E+00
 0.65319725746E+00 0.59508319780E+00 0.52878402314E+00 0.46299656424E+00 0.39877088478E+00
 0.34150735036E+00 0.29225890607E+00 0.25239731306E+00 0.22237139801E+00 0.20420590197E+00
 0.19824917815E+00 0.20490228918E+00 0.22235739892E+00 0.25118979611E+00 0.29162221339E+00
 0.34154366025E+00 0.38322432719E+00 0.44518877238E+00 0.51320566816E+00 0.58310214895E+00
 0.64747512475E+00 0.69914020786E+00 0.74446383152E+00 0.77663905900E+00 0.79320941113E+00
 0.79138405326E+00 0.77573602647E+00 0.74452017791E+00 0.70026395727E+00 0.64604562772E+00
 0.58303148988E+00 0.51301888295E+00 0.44611510436E+00 0.38090857558E+00 0.32752370860E+00
 0.28309389986E+00 0.24958245637E+00 0.22428531376E+00 0.21318208874E+00 0.21288099357E+00
 0.22519886548E+00 0.24712979230E+00 0.28219890544E+00 0.32752134343E+00 0.36195127441E+00
 0.42193859367E+00 0.48795934807E+00 0.55921339329E+00 0.62866410436E+00 0.68623627896E+00
 0.73580238880E+00 0.77518965364E+00 0.80042020854E+00 0.80840557586E+00 0.79985809205E+00
 0.77591769290E+00 0.73757683906E+00 0.68637762333E+00 0.62753590204E+00 0.55943400345E+00
 0.48918967956E+00 0.42164591349E+00 0.35971295847E+00 0.30997935939E+00 0.27139039449E+00
 0.24348367536E+00 0.22546369098E+00 0.22041489124E+00 0.22612735357E+00 0.24244037140E+00
 0.26999904488E+00 0.31076980713E+00 0.33728181240E+00 0.39320507842E+00 0.45626106010E+00
 0.52538273949E+00 0.59733923950E+00 0.66153569421E+00 0.71418859025E+00 0.76002623549E+00
 0.79148418889E+00 0.80774775171E+00 0.80696978396E+00 0.79235044475E+00 0.76089069812E+00
 0.71563082465E+00 0.65992144846E+00 0.59687809286E+00 0.52644137341E+00 0.45785902508E+00
 0.39193291267E+00 0.33631506192E+00 0.29129715034E+00 0.25800761683E+00 0.23520437514E+00
 0.22487161644E+00 0.22540277872E+00 0.23669499738E+00 0.25751684066E+00 0.29160071047E+00
 0.31107685286E+00 0.36104782951E+00 0.41955387233E+00 0.48467835031E+00 0.55444862879E+00
 0.62357381955E+00 0.68086341575E+00 0.72927740884E+00 0.76817765803E+00 0.79222847292E+00
 0.79919404769E+00 0.79056900076E+00 0.76821660242E+00 0.73056706242E+00 0.68043174939E+00
 0.62197331312E+00 0.55445043293E+00 0.48678632180E+00 0.42048681672E+00 0.36033851735E+00
 0.31105496653E+00 0.27285352931E+00 0.24458894285E+00 0.22808943517E+00 0.22367270331E+00
 0.22975166758E+00 0.24537645764E+00 0.27191668309E+00 0.28522566333E+00 0.32768843841E+00
 0.38061740433E+00 0.43995535642E+00 0.50553953735E+00 0.57284757660E+00 0.63660186034E+00
 0.68731161204E+00 0.73041562492E+00 0.76056363755E+00 0.77651325988E+00 0.77513545595E+00
 0.75978321819E+00 0.72975628174E+00 0.68803190574E+00 0.63489258304E+00 0.57242409364E+00
 0.50490845481E+00 0.44145773690E+00 0.37994749035E+00 0.32855438435E+00 0.28546779050E+00
 0.25443684334E+00 0.23177801278E+00 0.22222789825E+00 0.22245070552E+00 0.23353438661E+00
 0.25302993759E+00 0.26084424141E+00 0.29595575163E+00 0.34103938348E+00 0.39395311594E+00
 0.45357571822E+00 0.51609922283E+00 0.57922824753E+00 0.63520998583E+00 0.68008831604E+00
 0.71555619080E+00 0.73794347769E+00 0.74457742594E+00 0.73647465995E+00 0.71484369979E+00
 0.68096326790E+00 0.63613875620E+00 0.57885039384E+00 0.51601136754E+00 0.45350346684E+00
 0.39311304729E+00 0.34024734099E+00 0.29678954966E+00 0.26226216562E+00 0.23697305107E+00
 0.22168051299E+00 0.21705069471E+00 0.22238745160E+00 0.23658282667E+00 0.23988377171E+00
 0.26700328754E+00 0.30407330905E+00 0.34923195574E+00 0.40136814278E+00 0.45859239437E+00
 0.51660338301E+00 0.57307495183E+00 0.62206633468E+00 0.65966579308E+00 0.68667256369E+00
 0.70087185518E+00 0.70022124797E+00 0.68639304935E+00 0.66068719484E+00 0.62326511659E+00
 0.57349580739E+00 0.51634859966E+00 0.45894449718E+00 0.40087998031E+00 0.34806020352E+00
 0.30262610929E+00 0.26758135046E+00 0.24046215190E+00 0.22233044858E+00 0.21311922114E+00
 0.21346328660E+00 0.22218036595E+00 0.22255008392E+00 0.24247732719E+00 0.27118442869E+00
 0.30795454833E+00 0.35188440152E+00 0.40123552856E+00 0.45443613860E+00 0.50587347258E+00
 0.55453398262E+00 0.59644362363E+00 0.62752377846E+00 0.64630754777E+00 0.65311551571E+00
 0.64674644574E+00 0.62800640419E+00 0.59703624957E+00 0.55432392667E+00 0.50631603339E+00
 0.45491506800E+00 0.40193039140E+00 0.35191927937E+00 0.30744382145E+00 0.27064527307E+00
 0.24250119810E+00 0.22255288802E+00 0.21048380214E+00 0.20680169890E+00 0.21074867357E+00
 0.20910459584E+00 0.22283968001E+00 0.24416219375E+00 0.27262334821E+00 0.30785674149E+00
 0.34876929962E+00 0.39387391908E+00 0.44142714439E+00 0.48605264257E+00 0.52568495409E+00
 0.55906630134E+00 0.58307091137E+00 0.59509642565E+00 0.59524219854E+00 0.58316635042E+00
 0.55881950946E+00 0.52485532729E+00 0.48474870191E+00 0.44058223739E+00 0.39476468692E+00
 0.34999624708E+00 0.30804975688E+00 0.27261752510E+00 0.24380327976E+00 0.22270618646E+00
 0.20874068629E+00 0.20203287733E+00 0.20214704463E+00 0.19960060025E+00 0.20823691354E+00
 0.22311164672E+00 0.24411872671E+00 0.27131570781E+00 0.30344650286E+00 0.34029358927E+00
 0.37910269181E+00 0.41977017928E+00 0.45750573759E+00 0.48935452288E+00 0.51319649463E+00
 0.52895331872E+00 0.53400663734E+00 0.52886021150E+00 0.51332124481E+00 0.48896633844E+00
 0.45653743176E+00 0.41855564569E+00 0.37917476039E+00 0.34065859428E+00 0.30458806487E+00
 0.27185456924E+00 0.24446386455E+00 0.22318846642E+00 0.20806627895E+00 0.19944089349E+00
 0.19654859092E+00 0.19391777187E+00 0.19867007303E+00 0.20830455197E+00 0.22303580866E+00
 0.24287652028E+00 0.26756243723E+00 0.29590060027E+00 0.32764893555E+00 0.35980635318E+00
 0.39189360145E+00 0.42181480424E+00 0.44665285422E+00 0.46327072330E+00 0.47182588417E+00
 0.47171126348E+00 0.46325916057E+00 0.44649180176E+00 0.42201967129E+00 0.39267072147E+00
 0.35996421075E+00 0.32676614265E+00 0.29514686420E+00 0.26727152062E+00 0.24300568346E+00
 0.22328146744E+00 0.20845636119E+00 0.19861577351E+00 0.19388171599E+00 0.25849469597E+00
 0.26147324778E+00 0.27038855201E+00 0.28582869094E+00 0.30818764175E+00 0.33750993797E+00
 0.37320399479E+00 0.41336213696E+00 0.45674164237E+00 0.50043112849E+00 0.54139615929E+00
 0.57698727465E+00 0.60539389839E+00 0.62290467581E+00 0.62862290027E+00 0.62258329247E+00
 0.60538964497E+00 0.57856454681E+00 0.54287829486E+00 0.50110561427E+00 0.45675952211E+00
 0.41301213237E+00 0.37211507231E+00 0.33701622628E+00 0.30819977173E+00 0.28610070712E+00
 0.27062470453E+00 0.26151010790E+00 0.26141142841E+00 0.26153454411E+00 0.26563634899E+00
 0.27408209534E+00 0.28741590175E+00 0.30641330637E+00 0.33064470287E+00 0.36007695808E+00
 0.39208736817E+00 0.42526480840E+00 0.45751400040E+00 0.48697728384E+00 0.51051989342E+00
 0.52795499345E+00 0.53684665889E+00 0.53649162368E+00 0.52732910233E+00 0.51028992347E+00
 0.48704124663E+00 0.45851670986E+00 0.42585862413E+00 0.39184671994E+00 0.35942958127E+00
 0.33019542026E+00 0.30606931173E+00 0.28757567043E+00 0.27412502700E+00 0.26556577601E+00
 0.27033753573E+00 0.26937158901E+00 0.27058479094E+00 0.27418532664E+00 0.28060552561E+00
 0.29075351177E+00 0.30489335010E+00 0.32255264186E+00 0.34420691290E+00 0.36809155393E+00
 0.39134137367E+00 0.41181135969E+00 0.42990510390E+00 0.44396593229E+00 0.45293254873E+00
 0.45599540957E+00 0.45256327957E+00 0.44373026578E+00 0.42925059674E+00 0.41090479519E+00
 0.39021515359E+00 0.36819276633E+00 0.34510412165E+00 0.32367855516E+00 0.30507137422E+00
 0.29087051327E+00 0.28078409364E+00 0.27414017563E+00 0.28580135960E+00 0.28511155025E+00
 0.28555161484E+00 0.28618269519E+00 0.28772622925E+00 0.29116086194E+00 0.29699656183E+00
 0.30527795126E+00 0.31524532445E+00 0.32763878957E+00 0.34174556862E+00 0.35497704195E+00
 0.36538782009E+00 0.37319609835E+00 0.37864651954E+00 0.38130786765E+00 0.38150889710E+00
 0.37863175175E+00 0.37345426268E+00 0.36467692788E+00 0.35310075607E+00 0.34061652102E+00
 0.32882743219E+00 0.31645242981E+00 0.30542937245E+00 0.29678139411E+00 0.29121514068E+00
 0.28769187618E+00 0.30823368695E+00 0.30933138071E+00 0.31020430918E+00 0.30994340741E+00
 0.30818753126E+00 0.30621350602E+00 0.30563729841E+00 0.30555612985E+00 0.30651757882E+00
 0.30860157838E+00 0.31158452930E+00 0.31471910841E+00 0.31729297968E+00 0.31724612274E+00
 0.31689139895E+00 0.31650836698E+00 0.31615095273E+00 0.31680127501E+00 0.31789802038E+00
 0.31837438255E+00 0.31723660245E+00 0.31449349602E+00 0.31149556535E+00 0.30918252176E+00
 0.30653569253E+00 0.30494134791E+00 0.30539247882E+00 0.30688619823E+00 0.33770988023E+00
 0.34229180231E+00 0.34515071500E+00 0.34585968716E+00 0.34279590726E+00 0.33694157750E+00
 0.33023857840E+00 0.32442505250E+00 0.31699030054E+00 0.30904526153E+00 0.30181209889E+00
 0.29594932011E+00 0.28785593352E+00 0.27874755222E+00 0.27093710737E+00 0.26539814459E+00
 0.26178420641E+00 0.26091925320E+00 0.26496918311E+00 0.27255194023E+00 0.28048713114E+00
 0.28794557431E+00 0.29520322727E+00 0.30231128761E+00 0.30915806472E+00 0.31554311268E+00
 0.32286070319E+00 0.33099734143E+00 0.37348626890E+00 0.38362041721E+00 0.39000426310E+00
 0.39313550869E+00 0.39127995133E+00 0.38327889171E+00 0.37169280177E+00 0.35860648890E+00
 0.34500624179E+00 0.32940062557E+00 0.31229163099E+00 0.29556810244E+00 0.27875219939E+00
 0.25957060008E+00 0.24267033596E+00 0.23001329270E+00 0.22132594330E+00 0.21705512060E+00
 0.21907161820E+00 0.22885227192E+00 0.24388078370E+00 0.26053051494E+00 0.27808261414E+00
 0.29594325642E+00 0.31283313506E+00 0.32840492380E+00 0.34360002323E+00 0.35936667312E+00
 0.41362179936E+00 0.43232893860E+00 0.44395770062E+00 0.45147995514E+00 0.45226697758E+00
 0.44590196089E+00 0.43075003198E+00 0.41300720695E+00 0.39116354426E+00 0.36736166676E+00
 0.34070576381E+00 0.31571035356E+00 0.28868565409E+00 0.26068961588E+00 0.23290850152E+00
 0.21122403416E+00 0.19540694561E+00 0.18633067710E+00 0.18436957032E+00 0.19357086271E+00
 0.21078704891E+00 0.23372640756E+00 0.25893200438E+00 0.28794539689E+00 0.31589121157E+00
 0.34263747456E+00 0.36651601160E+00 0.39105281263E+00 0.45680331725E+00 0.48520165718E+00
 0.50569450919E+00 0.51836878257E+00 0.52406635808E+00 0.52038707691E+00 0.50612546220E+00
 0.48333518681E+00 0.45675250081E+00 0.42571884109E+00 0.38982622358E+00 0.35233383485E+00
 0.31725802329E+00 0.28024231274E+00 0.24312543532E+00 0.21020386809E+00 0.18534448198E+00
 0.16975839832E+00 0.16285028374E+00 0.16762058563E+00 0.18535368060E+00 0.21192672028E+00
 0.24255432866E+00 0.27795419422E+00 0.31724765988E+00 0.35514988850E+00 0.39054667441E+00
 0.42411704339E+00 0.50015096189E+00 0.53964340670E+00 0.57165694663E+00 0.59256413433E+00
 0.60469161118E+00 0.60573075404E+00 0.59440563066E+00 0.57075539125E+00 0.53935334310E+00
 0.50127679582E+00 0.45840607122E+00 0.41091704464E+00 0.36412604459E+00 0.31791083452E+00
 0.27217483817E+00 0.22856531314E+00 0.19332247377E+00 0.16773760514E+00 0.15472611517E+00
 0.15381530971E+00 0.16850670285E+00 0.19521947201E+00 0.23062989346E+00 0.27003641072E+00
 0.31670332558E+00 0.36541593699E+00 0.41260380067E+00 0.45680167297E+00 0.54106766052E+00
 0.59249084794E+00 0.63712517307E+00 0.66970501364E+00 0.68997863686E+00 0.69787891036E+00
 0.69145103303E+00 0.66877859249E+00 0.63507867883E+00 0.59335657858E+00 0.54376801961E+00
 0.48691676622E+00 0.42920568938E+00 0.37307250474E+00 0.31801187049E+00 0.26561817260E+00
 0.21971793535E+00 0.18478212825E+00 0.16192594370E+00 0.15293047608E+00 0.16099627269E+00
 0.18594993472E+00 0.22229206047E+00 0.26569170859E+00 0.31605585903E+00 0.37301394509E+00
 0.43096637441E+00 0.48695931002E+00 0.57690837042E+00 0.64058698233E+00 0.69767721851E+00
 0.74459655422E+00 0.77658158595E+00 0.79440700314E+00 0.79480609659E+00 0.77799401515E+00
 0.74252727562E+00 0.69615391456E+00 0.64103591117E+00 0.57949444463E+00 0.51062024667E+00
 0.44384172525E+00 0.37883993357E+00 0.31738856585E+00 0.26192517483E+00 0.21742158078E+00
 0.18554723371E+00 0.16835533527E+00 0.16635403019E+00 0.18398698202E+00 0.21780242934E+00
 0.26318623474E+00 0.31593537068E+00 0.37830975980E+00 0.44439914494E+00 0.51176182761E+00
 0.60544693696E+00 0.67995293023E+00 0.75046857659E+00 0.81179842429E+00 0.85695252677E+00
 0.88484537881E+00 0.89558809361E+00 0.88600029233E+00 0.85680274029E+00 0.81018686584E+00
 0.75023108591E+00 0.68030545036E+00 0.60540236343E+00 0.52751862058E+00 0.45262484258E+00
 0.38139191561E+00 0.31611643993E+00 0.26222895863E+00 0.22158650825E+00 0.19551194866E+00
 0.18535917606E+00 0.19344625309E+00 0.22001441972E+00 0.26232747988E+00 0.31617755422E+00
 0.38045838580E+00 0.45290976354E+00 0.52866269094E+00 0.62307769797E+00 0.70863973499E+00
 0.79192368334E+00 0.86555229451E+00 0.92417767231E+00 0.96664848464E+00 0.98914717651E+00
 0.99055921921E+00 0.96789426424E+00 0.92441143275E+00 0.86480677862E+00 0.79238741811E+00
 0.70881553877E+00 0.62237580234E+00 0.53659236574E+00 0.45560648988E+00 0.38065258624E+00
 0.31532338560E+00 0.26507725877E+00 0.23090503218E+00 0.21254056305E+00 0.21142569037E+00
 0.22945463053E+00 0.26522241611E+00 0.31628799675E+00 0.38060007794E+00 0.45535802629E+00
 0.53711561165E+00 0.62880138197E+00 0.72373930959E+00 0.81794307540E+00 0.90322089315E+00
 0.97754943671E+00 0.10358899685E+01 0.10725050896E+01 0.10847893457E+01 0.10730598925E+01
 0.10367960576E+01 0.97805925735E+00 0.90333034000E+00 0.81799263998E+00 0.72368911162E+00
 0.62863768237E+00 0.53720025430E+00 0.45274621055E+00 0.37814157884E+00 0.31589452891E+00
 0.27044662015E+00 0.24326224967E+00 0.23455646536E+00 0.24377373874E+00 0.27172670246E+00
 0.31703939145E+00 0.37827320243E+00 0.45253083568E+00 0.53683121695E+00 0.62261523097E+00
 0.72361013328E+00 0.82698317323E+00 0.92327425758E+00 0.10116576521E+01 0.10850516289E+01
 0.11355129389E+01 0.11610301356E+01 0.11601882134E+01 0.11345952450E+01 0.10850771839E+01
 0.10124538540E+01 0.92347492212E+00 0.82671895746E+00 0.72395552022E+00 0.62307661674E+00
 0.52858195901E+00 0.44427636867E+00 0.37340564718E+00 0.31716461838E+00 0.27820598951E+00
 0.25878154816E+00 0.25988636970E+00 0.27965015792E+00 0.31774724887E+00 0.37330870994E+00
 0.44420263799E+00 0.52806223272E+00 0.60541474927E+00 0.70854127688E+00 0.81785766038E+00
 0.92342515602E+00 0.10232972400E+01 0.11096068460E+01 0.11739389537E+01 0.12127892308E+01
 0.12253425455E+01 0.12116558260E+01 0.11727628128E+01 0.11095528273E+01 0.10231921404E+01
 0.92286255075E+00 0.81783516537E+00 0.70918121215E+00 0.60536592115E+00 0.51137454749E+00
 0.43103758074E+00 0.36594161391E+00 0.31723656061E+00 0.28717605248E+00 0.27740431925E+00
 0.28802498907E+00 0.31728257405E+00 0.36478752567E+00 0.43021484444E+00 0.51147949297E+00
 0.57867197798E+00 0.67971691438E+00 0.79213608988E+00 0.90326044196E+00 0.10121578531E+01
 0.11089283698E+01 0.11861304591E+01 0.12391207636E+01 0.12664163376E+01 0.12643633127E+01
 0.12383696083E+01 0.11861531346E+01 0.11103777732E+01 0.10105649748E+01 0.90329706000E+00
 0.79181534246E+00 0.68075632012E+00 0.57624021805E+00 0.48694912587E+00 0.41268342335E+00
 0.35585988806E+00 0.31472258099E+00 0.29558250996E+00 0.29519991116E+00 0.31568758798E+00
 0.35307946533E+00 0.41174724616E+00 0.48702851880E+00 0.54267531481E+00 0.64081403223E+00
 0.75008480810E+00 0.86524108728E+00 0.97808002769E+00 0.10847254639E+01 0.11723551181E+01
 0.12377065733E+01 0.12790423047E+01 0.12929030528E+01 0.12783326687E+01 0.12384889386E+01
 0.11740216335E+01 0.10848969550E+01 0.97679131583E+00 0.86550066972E+00 0.75145329226E+00
 0.64042251960E+00 0.54038089614E+00 0.45676174945E+00 0.39106192881E+00 0.34243717793E+00
 0.31212420281E+00 0.30268490109E+00 0.31283104564E+00 0.34145580077E+00 0.38966961474E+00
 0.45758332767E+00 0.50078840944E+00 0.59338072973E+00 0.69654579635E+00 0.81094755421E+00
 0.92480314170E+00 0.10370701019E+01 0.11346764128E+01 0.12120024804E+01 0.12645320620E+01
 0.12920027541E+01 0.12912353247E+01 0.12656070977E+01 0.12129157846E+01 0.11364459633E+01
 0.10352147680E+01 0.92446738713E+00 0.81189756717E+00 0.69843825806E+00 0.59184017196E+00
 0.49988330712E+00 0.42432731725E+00 0.36730097911E+00 0.32786502259E+00 0.30929938349E+00
 0.30974696672E+00 0.32959899668E+00 0.36647792911E+00 0.42472541563E+00 0.45671456358E+00
 0.53984726289E+00 0.63585220426E+00 0.74325200317E+00 0.85675169808E+00 0.96782192530E+00
 0.10734475931E+01 0.11603441260E+01 0.12253669288E+01 0.12654536369E+01 0.12777363653E+01
 0.12635080985E+01 0.12252954968E+01 0.11617576182E+01 0.10728558155E+01 0.96617720877E+00
 0.85671944965E+00 0.74546280646E+00 0.63686252309E+00 0.53908400488E+00 0.45668162643E+00
 0.39183262194E+00 0.34360812164E+00 0.31507285511E+00 0.30645692527E+00 0.31682372294E+00
 0.34446730310E+00 0.39096216842E+00 0.41333802888E+00 0.48427818830E+00 0.57168237511E+00
 0.66878329416E+00 0.77698943934E+00 0.88529807820E+00 0.99016736465E+00 0.10855312900E+01
 0.11615443222E+01 0.12124683602E+01 0.12390986675E+01 0.12376110313E+01 0.12119062514E+01
 0.11608511954E+01 0.10862679872E+01 0.98847802987E+00 0.88474367257E+00 0.77644961748E+00
 0.67032197982E+00 0.57101102161E+00 0.48515162493E+00 0.41372697819E+00 0.36012981277E+00
 0.32216322385E+00 0.30481395988E+00 0.30508764135E+00 0.32399796385E+00 0.35861703014E+00
 0.37234230318E+00 0.43159581739E+00 0.50609562877E+00 0.59355253498E+00 0.69049010013E+00
 0.79411480929E+00 0.89520659527E+00 0.98870108797E+00 0.10726135047E+01 0.11362700379E+01
 0.11746468552E+01 0.11861758038E+01 0.11730579481E+01 0.11352587527E+01 0.10735290692E+01
 0.98976737338E+00 0.89467076335E+00 0.79411879110E+00 0.69035536252E+00 0.59268655739E+00
 0.50522011109E+00 0.43240577568E+00 0.37381510281E+00 0.33103516478E+00 0.30474173291E+00
 0.29663065847E+00 0.30551146898E+00 0.33063855185E+00 0.33722180499E+00 0.38328654646E+00
 0.44510283085E+00 0.51962070071E+00 0.60539446149E+00 0.69825580258E+00 0.79469515669E+00
 0.88547833467E+00 0.96625581291E+00 0.10348980214E+01 0.10852320303E+01 0.11108187800E+01
 0.11102226275E+01 0.10847303160E+01 0.10364827773E+01 0.96735083497E+00 0.88591176537E+00
 0.79451921338E+00 0.69853633138E+00 0.60498305542E+00 0.51835028965E+00 0.44366795566E+00
 0.38391588212E+00 0.33784037628E+00 0.30671277547E+00 0.29094725193E+00 0.29131239098E+00
 0.30651891852E+00 0.30822579889E+00 0.34241363546E+00 0.39057084085E+00 0.45176922425E+00
 0.52410782721E+00 0.60523125542E+00 0.69139014940E+00 0.77738938216E+00 0.85681768758E+00
 0.92399559600E+00 0.97684056538E+00 0.10108504458E+01 0.10233167130E+01 0.10114980222E+01
 0.97741145271E+00 0.92406084063E+00 0.85693522471E+00 0.77778775486E+00 0.69182836470E+00
 0.60602222019E+00 0.52406100125E+00 0.45120602671E+00 0.38994695016E+00 0.34247766401E+00
 0.30819177323E+00 0.28757417623E+00 0.28093085731E+00 0.28788999055E+00 0.28607507374E+00
 0.30960865206E+00 0.34551495045E+00 0.39310837134E+00 0.45164022333E+00 0.51917036477E+00
 0.59346249687E+00 0.67034034083E+00 0.74472308942E+00 0.81114344964E+00 0.86507723855E+00
 0.90330833354E+00 0.92281357184E+00 0.92282546385E+00 0.90314324510E+00 0.86502808806E+00
 0.81081259364E+00 0.74278194993E+00 0.66969203136E+00 0.59437678039E+00 0.52045596230E+00
 0.45192931916E+00 0.39310212317E+00 0.34515446979E+00 0.30947159535E+00 0.28572167920E+00
 0.27407376798E+00 0.27417875715E+00 0.27057408281E+00 0.28528000652E+00 0.31027642543E+00
 0.34548867483E+00 0.39071823300E+00 0.44440618771E+00 0.50528141150E+00 0.57009960936E+00
 0.63606525961E+00 0.69802284667E+00 0.75156221005E+00 0.79206501861E+00 0.81802393441E+00
 0.82661240412E+00 0.81815245686E+00 0.79242704397E+00 0.75059818545E+00 0.69687326276E+00
 0.63521516012E+00 0.56982146978E+00 0.50583650461E+00 0.44549704908E+00 0.39131227942E+00
 0.34583080869E+00 0.31035593025E+00 0.28506915350E+00 0.27038850662E+00 0.26551365805E+00
 0.26144682650E+00 0.26932773460E+00 0.28535201985E+00 0.30979725868E+00 0.34283862664E+00
 0.38391116244E+00 0.43155139041E+00 0.48419636444E+00 0.53854236297E+00 0.59183253119E+00
 0.64069505193E+00 0.68134454879E+00 0.70941769827E+00 0.72391223496E+00 0.72370619494E+00
 0.70907908899E+00 0.68128002361E+00 0.64132305347E+00 0.59252314884E+00 0.53863369927E+00
 0.48342652223E+00 0.43071953266E+00 0.38363274949E+00 0.34292881249E+00 0.31009236015E+00
 0.28552251473E+00 0.26930576278E+00 0.26137833527E+00 0.34351251304E+00 0.34864996447E+00
 0.36408628244E+00 0.39042530132E+00 0.42806085294E+00 0.47662937460E+00 0.53513527573E+00
 0.60030944330E+00 0.67060360700E+00 0.74089822683E+00 0.80696675247E+00 0.86482795191E+00
 0.91093735367E+00 0.93988804137E+00 0.94947407836E+00 0.93932585301E+00 0.91085238025E+00
 0.86670095206E+00 0.80866275159E+00 0.74170056004E+00 0.67049091726E+00 0.60011385825E+00
 0.53391053761E+00 0.47608685337E+00 0.42806482843E+00 0.39074409391E+00 0.36436489088E+00
 0.34867400848E+00 0.34858933110E+00 0.34870961894E+00 0.35581435621E+00 0.37035079678E+00
 0.39305460274E+00 0.42480270918E+00 0.46485725933E+00 0.51302605804E+00 0.56533093112E+00
 0.62018221130E+00 0.67410319645E+00 0.72373445462E+00 0.76486968148E+00 0.79523269187E+00
 0.81098702752E+00 0.81071568497E+00 0.79466173326E+00 0.76455229786E+00 0.72388391043E+00
 0.67486493510E+00 0.62077872430E+00 0.56514172220E+00 0.51223721951E+00 0.46447350556E+00
 0.42444975421E+00 0.39322378869E+00 0.37038045395E+00 0.35573712829E+00 0.36401698318E+00
 0.36228266879E+00 0.36426617919E+00 0.37047671204E+00 0.38148049839E+00 0.39858293791E+00