   3   3   1   0
  0.4389436E+02  0.3183861E-09  0.3183861E-09  0.1500000E-08  0.5000000E-15
  1.000000000000000E-004
  CAR 
 unknown system                          
      9.00000000    -11.00000000 2001     -0.51999992      1.00000000
    -11.000  0.1200E+04  0.1200E+02
    -10.990  0.0000E+00  0.1200E+02
    -10.980  0.0000E+00  0.1200E+02
    -10.970  0.0000E+00  0.1200E+02
    -10.960  0.0000E+00  0.1200E+02
    -10.950  0.0000E+00  0.1200E+02
    -10.940  0.0000E+00  0.1200E+02
    -10.930  0.0000E+00  0.1200E+02
    -10.920  0.0000E+00  0.1200E+02
    -10.910  0.0000E+00  0.1200E+02
    -10.900  0.0000E+00  0.1200E+02
    -10.890  0.0000E+00  0.1200E+02
    -10.880  0.0000E+00  0.1200E+02
    -10.870  0.0000E+00  0.1200E+02
    -10.860  0.0000E+00  0.1200E+02
    -10.850  0.0000E+00  0.1200E+02
    -10.840  0.0000E+00  0.1200E+02
    -10.830  0.0000E+00  0.1200E+02
    -10.820  0.0000E+00  0.1200E+02
    -10.810  0.0000E+00  0.1200E+02
    -10.800  0.0000E+00  0.1200E+02
    -10.790  0.0000E+00  0.1200E+02
    -10.780  0.0000E+00  0.1200E+02
    -10.770  0.0000E+00  0.1200E+02
    -10.760  0.0000E+00  0.1200E+02
    -10.750  0.0000E+00  0.1200E+02
    -10.740  0.0000E+00  0.1200E+02
    -10.730  0.0000E+00  0.1200E+02
    -10.720  0.0000E+00  0.1200E+02
    -10.710  0.0000E+00  0.1200E+02
    -10.700  0.0000E+00  0.1200E+02
    -10.690  0.0000E+00  0.1200E+02
    -10.680  0.0000E+00  0.1200E+02
    -10.670  0.0000E+00  0.1200E+02
    -10.660  0.0000E+00  0.1200E+02
    -10.650  0.0000E+00  0.1200E+02
    -10.640  0.0000E+00  0.1200E+02
    -10.630  0.0000E+00  0.1200E+02
    -10.620  0.0000E+00  0.1200E+02
    -10.610  0.0000E+00  0.1200E+02
    -10.600  0.0000E+00  0.1200E+02
    -10.590  0.0000E+00  0.1200E+02
    -10.580  0.0000E+00  0.1200E+02
    -10.570  0.0000E+00  0.1200E+02
    -10.560  0.0000E+00  0.1200E+02
    -10.550  0.0000E+00  0.1200E+02
    -10.540  0.0000E+00  0.1200E+02
    -10.530  0.0000E+00  0.1200E+02
    -10.520  0.0000E+00  0.1200E+02
    -10.510  0.0000E+00  0.1200E+02
    -10.500  0.0000E+00  0.1200E+02
    -10.490  0.0000E+00  0.1200E+02
    -10.480  0.0000E+00  0.1200E+02
    -10.470  0.0000E+00  0.1200E+02
    -10.460  0.0000E+00  0.1200E+02
    -10.450  0.0000E+00  0.1200E+02
    -10.440  0.0000E+00  0.1200E+02
    -10.430  0.0000E+00  0.1200E+02
    -10.420  0.0000E+00  0.1200E+02
    -10.410  0.0000E+00  0.1200E+02
    -10.400  0.0000E+00  0.1200E+02
    -10.390  0.0000E+00  0.1200E+02
    -10.380  0.0000E+00  0.1200E+02
    -10.370  0.0000E+00  0.1200E+02
    -10.360  0.0000E+00  0.1200E+02
    -10.350  0.0000E+00  0.1200E+02
    -10.340  0.0000E+00  0.1200E+02
    -10.330  0.0000E+00  0.1200E+02
    -10.320  0.0000E+00  0.1200E+02
    -10.310  0.0000E+00  0.1200E+02
    -10.300  0.0000E+00  0.1200E+02
    -10.290  0.0000E+00  0.1200E+02
    -10.280  0.0000E+00  0.1200E+02
    -10.270  0.0000E+00  0.1200E+02
    -10.260  0.0000E+00  0.1200E+02
    -10.250  0.0000E+00  0.1200E+02
    -10.240  0.0000E+00  0.1200E+02
    -10.230  0.0000E+00  0.1200E+02
    -10.220  0.0000E+00  0.1200E+02
    -10.210  0.0000E+00  0.1200E+02
    -10.200  0.0000E+00  0.1200E+02
    -10.190  0.0000E+00  0.1200E+02
    -10.180  0.0000E+00  0.1200E+02
    -10.170  0.0000E+00  0.1200E+02
    -10.160  0.0000E+00  0.1200E+02
    -10.150  0.0000E+00  0.1200E+02
    -10.140  0.0000E+00  0.1200E+02
    -10.130  0.0000E+00  0.1200E+02
    -10.120  0.0000E+00  0.1200E+02
    -10.110  0.0000E+00  0.1200E+02
    -10.100  0.0000E+00  0.1200E+02
    -10.090  0.0000E+00  0.1200E+02
    -10.080  0.0000E+00  0.1200E+02
    -10.070  0.0000E+00  0.1200E+02
    -10.060  0.0000E+00  0.1200E+02
    -10.050  0.0000E+00  0.1200E+02
    -10.040  0.0000E+00  0.1200E+02
    -10.030  0.0000E+00  0.1200E+02
    -10.020  0.0000E+00  0.1200E+02
    -10.010  0.0000E+00  0.1200E+02
    -10.000  0.0000E+00  0.1200E+02
     -9.990  0.0000E+00  0.1200E+02
     -9.980  0.0000E+00  0.1200E+02
     -9.970  0.0000E+00  0.1200E+02
     -9.960  0.0000E+00  0.1200E+02
     -9.950  0.0000E+00  0.1200E+02
     -9.940  0.0000E+00  0.1200E+02
     -9.930  0.0000E+00  0.1200E+02
     -9.920  0.0000E+00  0.1200E+02
     -9.910  0.0000E+00  0.1200E+02
     -9.900  0.0000E+00  0.1200E+02
     -9.890  0.0000E+00  0.1200E+02
     -9.880  0.0000E+00  0.1200E+02
     -9.870  0.0000E+00  0.1200E+02
     -9.860  0.0000E+00  0.1200E+02
     -9.850  0.0000E+00  0.1200E+02
     -9.840  0.0000E+00  0.1200E+02
     -9.830  0.0000E+00  0.1200E+02
     -9.820  0.0000E+00  0.1200E+02
     -9.810  0.0000E+00  0.1200E+02
     -9.800  0.0000E+00  0.1200E+02
     -9.790  0.0000E+00  0.1200E+02
     -9.780  0.0000E+00  0.1200E+02
     -9.770  0.0000E+00  0.1200E+02
     -9.760  0.0000E+00  0.1200E+02
     -9.750  0.0000E+00  0.1200E+02
     -9.740  0.0000E+00  0.1200E+02
     -9.730  0.0000E+00  0.1200E+02
     -9.720  0.0000E+00  0.1200E+02
     -9.710  0.0000E+00  0.1200E+02
     -9.700  0.0000E+00  0.1200E+02
     -9.690  0.0000E+00  0.1200E+02
     -9.680  0.0000E+00  0.1200E+02
     -9.670  0.0000E+00  0.1200E+02
     -9.660  0.0000E+00  0.1200E+02
     -9.650  0.0000E+00  0.1200E+02
     -9.640  0.0000E+00  0.1200E+02
     -9.630  0.0000E+00  0.1200E+02
     -9.620  0.0000E+00  0.1200E+02
     -9.610  0.0000E+00  0.1200E+02
     -9.600  0.0000E+00  0.1200E+02
     -9.590  0.0000E+00  0.1200E+02
     -9.580  0.0000E+00  0.1200E+02
     -9.570  0.0000E+00  0.1200E+02
     -9.560  0.0000E+00  0.1200E+02
     -9.550  0.0000E+00  0.1200E+02
     -9.540  0.0000E+00  0.1200E+02
     -9.530  0.0000E+00  0.1200E+02
     -9.520  0.0000E+00  0.1200E+02
     -9.510  0.0000E+00  0.1200E+02
     -9.500  0.0000E+00  0.1200E+02
     -9.490  0.0000E+00  0.1200E+02
     -9.480  0.0000E+00  0.1200E+02
     -9.470  0.0000E+00  0.1200E+02
     -9.460  0.0000E+00  0.1200E+02
     -9.450  0.0000E+00  0.1200E+02
     -9.440  0.0000E+00  0.1200E+02
     -9.430  0.0000E+00  0.1200E+02
     -9.420  0.0000E+00  0.1200E+02
     -9.410  0.0000E+00  0.1200E+02
     -9.400  0.0000E+00  0.1200E+02
     -9.390  0.0000E+00  0.1200E+02
     -9.380  0.0000E+00  0.1200E+02
     -9.370  0.0000E+00  0.1200E+02
     -9.360  0.0000E+00  0.1200E+02
     -9.350  0.0000E+00  0.1200E+02
     -9.340  0.0000E+00  0.1200E+02
     -9.330  0.0000E+00  0.1200E+02
     -9.320  0.0000E+00  0.1200E+02
     -9.310  0.0000E+00  0.1200E+02
     -9.300  0.0000E+00  0.1200E+02
     -9.290  0.0000E+00  0.1200E+02
     -9.280  0.0000E+00  0.1200E+02
     -9.270  0.0000E+00  0.1200E+02
     -9.260  0.0000E+00  0.1200E+02
     -9.250  0.0000E+00  0.1200E+02
     -9.240  0.0000E+00  0.1200E+02
     -9.230  0.0000E+00  0.1200E+02
     -9.220  0.0000E+00  0.1200E+02
     -9.210  0.0000E+00  0.1200E+02
     -9.200  0.0000E+00  0.1200E+02
     -9.190  0.0000E+00  0.1200E+02
     -9.180  0.0000E+00  0.1200E+02
     -9.170  0.0000E+00  0.1200E+02
     -9.160  0.0000E+00  0.1200E+02
     -9.150  0.0000E+00  0.1200E+02
     -9.140  0.0000E+00  0.1200E+02
     -9.130  0.0000E+00  0.1200E+02
     -9.120  0.0000E+00  0.1200E+02
     -9.110  0.0000E+00  0.1200E+02
     -9.100  0.0000E+00  0.1200E+02
     -9.090  0.0000E+00  0.1200E+02
     -9.080  0.0000E+00  0.1200E+02
     -9.070  0.0000E+00  0.1200E+02
     -9.060  0.0000E+00  0.1200E+02
     -9.050  0.0000E+00  0.1200E+02
     -9.040  0.0000E+00  0.1200E+02
     -9.030  0.0000E+00  0.1200E+02
     -9.020  0.0000E+00  0.1200E+02
     -9.010  0.0000E+00  0.1200E+02
     -9.000  0.0000E+00  0.1200E+02
     -8.990  0.0000E+00  0.1200E+02
     -8.980  0.0000E+00  0.1200E+02
     -8.970  0.0000E+00  0.1200E+02
     -8.960  0.0000E+00  0.1200E+02
     -8.950  0.0000E+00  0.1200E+02
     -8.940  0.0000E+00  0.1200E+02
     -8.930  0.0000E+00  0.1200E+02
     -8.920  0.0000E+00  0.1200E+02
     -8.910  0.0000E+00  0.1200E+02
     -8.900  0.0000E+00  0.1200E+02
     -8.890  0.0000E+00  0.1200E+02
     -8.880  0.0000E+00  0.1200E+02
     -8.870  0.0000E+00  0.1200E+02
     -8.860  0.0000E+00  0.1200E+02
     -8.850  0.0000E+00  0.1200E+02
     -8.840  0.0000E+00  0.1200E+02
     -8.830  0.0000E+00  0.1200E+02
     -8.820  0.0000E+00  0.1200E+02
     -8.810  0.0000E+00  0.1200E+02
     -8.800  0.0000E+00  0.1200E+02
     -8.790  0.0000E+00  0.1200E+02
     -8.780  0.0000E+00  0.1200E+02
     -8.770  0.0000E+00  0.1200E+02
     -8.760  0.0000E+00  0.1200E+02
     -8.750  0.0000E+00  0.1200E+02
     -8.740  0.0000E+00  0.1200E+02
     -8.730  0.0000E+00  0.1200E+02
     -8.720  0.0000E+00  0.1200E+02
     -8.710  0.0000E+00  0.1200E+02
     -8.700  0.0000E+00  0.1200E+02
     -8.690  0.0000E+00  0.1200E+02
     -8.680  0.0000E+00  0.1200E+02
     -8.670  0.0000E+00  0.1200E+02
     -8.660  0.0000E+00  0.1200E+02
     -8.650  0.0000E+00  0.1200E+02
     -8.640  0.0000E+00  0.1200E+02
     -8.630  0.0000E+00  0.1200E+02
     -8.620  0.0000E+00  0.1200E+02
     -8.610  0.0000E+00  0.1200E+02
     -8.600  0.0000E+00  0.1200E+02
     -8.590  0.0000E+00  0.1200E+02
     -8.580  0.0000E+00  0.1200E+02
     -8.570  0.0000E+00  0.1200E+02
     -8.560  0.0000E+00  0.1200E+02
     -8.550  0.0000E+00  0.1200E+02
     -8.540  0.0000E+00  0.1200E+02
     -8.530  0.0000E+00  0.1200E+02
     -8.520  0.0000E+00  0.1200E+02
     -8.510  0.0000E+00  0.1200E+02
     -8.500  0.0000E+00  0.1200E+02
     -8.490  0.0000E+00  0.1200E+02
     -8.480  0.0000E+00  0.1200E+02
     -8.470  0.0000E+00  0.1200E+02
     -8.460  0.0000E+00  0.1200E+02
     -8.450  0.0000E+00  0.1200E+02
     -8.440  0.0000E+00  0.1200E+02
     -8.430  0.0000E+00  0.1200E+02
     -8.420  0.0000E+00  0.1200E+02
     -8.410  0.0000E+00  0.1200E+02
     -8.400  0.0000E+00  0.1200E+02
     -8.390  0.0000E+00  0.1200E+02
     -8.380  0.0000E+00  0.1200E+02
     -8.370  0.0000E+00  0.1200E+02
     -8.360  0.0000E+00  0.1200E+02
     -8.350  0.0000E+00  0.1200E+02
     -8.340  0.0000E+00  0.1200E+02
     -8.330  0.0000E+00  0.1200E+02
     -8.320  0.0000E+00  0.1200E+02
     -8.310  0.0000E+00  0.1200E+02
     -8.300  0.0000E+00  0.1200E+02
     -8.290  0.0000E+00  0.1200E+02
     -8.280  0.0000E+00  0.1200E+02
     -8.270  0.0000E+00  0.1200E+02
     -8.260  0.0000E+00  0.1200E+02
     -8.250  0.0000E+00  0.1200E+02
     -8.240  0.0000E+00  0.1200E+02
     -8.230  0.0000E+00  0.1200E+02
     -8.220  0.0000E+00  0.1200E+02
     -8.210  0.0000E+00  0.1200E+02
     -8.200  0.0000E+00  0.1200E+02
     -8.190  0.0000E+00  0.1200E+02
     -8.180  0.0000E+00  0.1200E+02
     -8.170  0.0000E+00  0.1200E+02
     -8.160  0.0000E+00  0.1200E+02
     -8.150  0.0000E+00  0.1200E+02
     -8.140  0.0000E+00  0.1200E+02
     -8.130  0.0000E+00  0.1200E+02
     -8.120  0.0000E+00  0.1200E+02
     -8.110  0.0000E+00  0.1200E+02
     -8.100  0.0000E+00  0.1200E+02
     -8.090  0.0000E+00  0.1200E+02
     -8.080  0.0000E+00  0.1200E+02
     -8.070  0.0000E+00  0.1200E+02
     -8.060  0.0000E+00  0.1200E+02
     -8.050  0.0000E+00  0.1200E+02
     -8.040  0.0000E+00  0.1200E+02
     -8.030  0.0000E+00  0.1200E+02
     -8.020  0.0000E+00  0.1200E+02
     -8.010  0.0000E+00  0.1200E+02
     -8.000  0.0000E+00  0.1200E+02
     -7.990  0.0000E+00  0.1200E+02
     -7.980  0.0000E+00  0.1200E+02
     -7.970  0.0000E+00  0.1200E+02
     -7.960  0.0000E+00  0.1200E+02
     -7.950  0.0000E+00  0.1200E+02
     -7.940  0.0000E+00  0.1200E+02
     -7.930  0.0000E+00  0.1200E+02
     -7.920  0.0000E+00  0.1200E+02
     -7.910  0.0000E+00  0.1200E+02
     -7.900  0.0000E+00  0.1200E+02
     -7.890  0.0000E+00  0.1200E+02
     -7.880  0.0000E+00  0.1200E+02
     -7.870  0.0000E+00  0.1200E+02
     -7.860  0.0000E+00  0.1200E+02
     -7.850  0.0000E+00  0.1200E+02
     -7.840  0.0000E+00  0.1200E+02
     -7.830  0.0000E+00  0.1200E+02
     -7.820  0.0000E+00  0.1200E+02
     -7.810  0.0000E+00  0.1200E+02
     -7.800  0.0000E+00  0.1200E+02
     -7.790  0.0000E+00  0.1200E+02
     -7.780  0.0000E+00  0.1200E+02
     -7.770  0.0000E+00  0.1200E+02
     -7.760  0.0000E+00  0.1200E+02
     -7.750  0.0000E+00  0.1200E+02
     -7.740  0.0000E+00  0.1200E+02
     -7.730  0.0000E+00  0.1200E+02
     -7.720  0.0000E+00  0.1200E+02
     -7.710  0.0000E+00  0.1200E+02
     -7.700  0.0000E+00  0.1200E+02
     -7.690  0.0000E+00  0.1200E+02
     -7.680  0.0000E+00  0.1200E+02
     -7.670  0.0000E+00  0.1200E+02
     -7.660  0.0000E+00  0.1200E+02
     -7.650  0.0000E+00  0.1200E+02
     -7.640  0.0000E+00  0.1200E+02
     -7.630  0.0000E+00  0.1200E+02
     -7.620  0.0000E+00  0.1200E+02
     -7.610  0.0000E+00  0.1200E+02
     -7.600  0.0000E+00  0.1200E+02
     -7.590  0.0000E+00  0.1200E+02
     -7.580  0.0000E+00  0.1200E+02
     -7.570  0.0000E+00  0.1200E+02
     -7.560  0.0000E+00  0.1200E+02
     -7.550  0.0000E+00  0.1200E+02
     -7.540  0.0000E+00  0.1200E+02
     -7.530  0.0000E+00  0.1200E+02
     -7.520  0.0000E+00  0.1200E+02
     -7.510  0.0000E+00  0.1200E+02
     -7.500  0.0000E+00  0.1200E+02
     -7.490  0.0000E+00  0.1200E+02
     -7.480  0.0000E+00  0.1200E+02
     -7.470  0.0000E+00  0.1200E+02
     -7.460  0.0000E+00  0.1200E+02
     -7.450  0.0000E+00  0.1200E+02
     -7.440  0.0000E+00  0.1200E+02
     -7.430  0.0000E+00  0.1200E+02
     -7.420  0.0000E+00  0.1200E+02
     -7.410  0.0000E+00  0.1200E+02
     -7.400  0.0000E+00  0.1200E+02
     -7.390  0.0000E+00  0.1200E+02
     -7.380  0.0000E+00  0.1200E+02
     -7.370  0.0000E+00  0.1200E+02
     -7.360  0.0000E+00  0.1200E+02
     -7.350  0.0000E+00  0.1200E+02
     -7.340  0.0000E+00  0.1200E+02
     -7.330  0.0000E+00  0.1200E+02
     -7.320  0.0000E+00  0.1200E+02
     -7.310  0.0000E+00  0.1200E+02
     -7.300  0.0000E+00  0.1200E+02
     -7.290  0.0000E+00  0.1200E+02
     -7.280  0.0000E+00  0.1200E+02
     -7.270  0.0000E+00  0.1200E+02
     -7.260  0.0000E+00  0.1200E+02
     -7.250  0.0000E+00  0.1200E+02
     -7.240  0.0000E+00  0.1200E+02
     -7.230  0.0000E+00  0.1200E+02
     -7.220  0.0000E+00  0.1200E+02
     -7.210  0.0000E+00  0.1200E+02
     -7.200  0.0000E+00  0.1200E+02
     -7.190  0.0000E+00  0.1200E+02
     -7.180  0.0000E+00  0.1200E+02
     -7.170  0.0000E+00  0.1200E+02
     -7.160  0.0000E+00  0.1200E+02
     -7.150  0.0000E+00  0.1200E+02
     -7.140  0.0000E+00  0.1200E+02
     -7.130  0.0000E+00  0.1200E+02
     -7.120  0.0000E+00  0.1200E+02
     -7.110  0.0000E+00  0.1200E+02
     -7.100  0.0000E+00  0.1200E+02
     -7.090  0.0000E+00  0.1200E+02
     -7.080  0.0000E+00  0.1200E+02
     -7.070  0.0000E+00  0.1200E+02
     -7.060  0.0000E+00  0.1200E+02
     -7.050  0.0000E+00  0.1200E+02
     -7.040  0.0000E+00  0.1200E+02
     -7.030  0.0000E+00  0.1200E+02
     -7.020  0.0000E+00  0.1200E+02
     -7.010  0.0000E+00  0.1200E+02
     -7.000  0.0000E+00  0.1200E+02
     -6.990  0.0000E+00  0.1200E+02
     -6.980  0.0000E+00  0.1200E+02
     -6.970  0.0000E+00  0.1200E+02
     -6.960  0.0000E+00  0.1200E+02
     -6.950  0.0000E+00  0.1200E+02
     -6.940  0.0000E+00  0.1200E+02
     -6.930  0.0000E+00  0.1200E+02
     -6.920  0.0000E+00  0.1200E+02
     -6.910  0.0000E+00  0.1200E+02
     -6.900  0.0000E+00  0.1200E+02
     -6.890  0.0000E+00  0.1200E+02
     -6.880  0.0000E+00  0.1200E+02
     -6.870  0.0000E+00  0.1200E+02
     -6.860  0.0000E+00  0.1200E+02
     -6.850  0.0000E+00  0.1200E+02
     -6.840  0.0000E+00  0.1200E+02
     -6.830  0.0000E+00  0.1200E+02
     -6.820  0.0000E+00  0.1200E+02
     -6.810  0.0000E+00  0.1200E+02
     -6.800  0.0000E+00  0.1200E+02
     -6.790  0.0000E+00  0.1200E+02
     -6.780  0.3701E-15  0.1200E+02
     -6.770  0.5736E-14  0.1200E+02
     -6.760  0.5089E-13  0.1200E+02
     -6.750  0.4483E-12  0.1200E+02
     -6.740  0.3630E-11  0.1200E+02
     -6.730  0.2717E-10  0.1200E+02
     -6.720  0.1879E-09  0.1200E+02
     -6.710  0.1201E-08  0.1200E+02
     -6.700  0.7091E-08  0.1200E+02
     -6.690  0.3871E-07  0.1200E+02
     -6.680  0.1953E-06  0.1200E+02
     -6.670  0.9113E-06  0.1200E+02
     -6.660  0.3930E-05  0.1200E+02
     -6.650  0.1567E-04  0.1200E+02
     -6.640  0.5780E-04  0.1200E+02
     -6.630  0.1972E-03  0.1200E+02
     -6.620  0.6222E-03  0.1200E+02
     -6.610  0.1817E-02  0.1200E+02
     -6.600  0.4909E-02  0.1200E+02
     -6.590  0.1228E-01  0.1200E+02
     -6.580  0.2845E-01  0.1200E+02
     -6.570  0.6105E-01  0.1200E+02
     -6.560  0.1214E+00  0.1200E+02
     -6.550  0.2239E+00  0.1200E+02
     -6.540  0.3832E+00  0.1201E+02
     -6.530  0.6090E+00  0.1201E+02
     -6.520  0.9002E+00  0.1202E+02
     -6.510  0.1239E+01  0.1204E+02
     -6.500  0.1593E+01  0.1205E+02
     -6.490  0.1916E+01  0.1207E+02
     -6.480  0.2167E+01  0.1209E+02
     -6.470  0.2316E+01  0.1212E+02
     -6.460  0.2354E+01  0.1214E+02
     -6.450  0.2295E+01  0.1216E+02
     -6.440  0.2169E+01  0.1218E+02
     -6.430  0.2011E+01  0.1220E+02
     -6.420  0.1855E+01  0.1222E+02
     -6.410  0.1732E+01  0.1224E+02
     -6.400  0.1667E+01  0.1226E+02
     -6.390  0.1679E+01  0.1227E+02
     -6.380  0.1777E+01  0.1229E+02
     -6.370  0.1955E+01  0.1231E+02
     -6.360  0.2187E+01  0.1233E+02
     -6.350  0.2434E+01  0.1236E+02
     -6.340  0.2648E+01  0.1238E+02
     -6.330  0.2787E+01  0.1241E+02
     -6.320  0.2832E+01  0.1244E+02
     -6.310  0.2787E+01  0.1247E+02
     -6.300  0.2674E+01  0.1249E+02
     -6.290  0.2528E+01  0.1252E+02
     -6.280  0.2378E+01  0.1254E+02
     -6.270  0.2242E+01  0.1257E+02
     -6.260  0.2128E+01  0.1259E+02
     -6.250  0.2033E+01  0.1261E+02
     -6.240  0.1950E+01  0.1263E+02
     -6.230  0.1873E+01  0.1265E+02
     -6.220  0.1797E+01  0.1266E+02
     -6.210  0.1727E+01  0.1268E+02
     -6.200  0.1676E+01  0.1270E+02
     -6.190  0.1665E+01  0.1271E+02
     -6.180  0.1718E+01  0.1273E+02
     -6.170  0.1858E+01  0.1275E+02
     -6.160  0.2093E+01  0.1277E+02
     -6.150  0.2410E+01  0.1279E+02
     -6.140  0.2774E+01  0.1282E+02
     -6.130  0.3131E+01  0.1285E+02
     -6.120  0.3425E+01  0.1289E+02
     -6.110  0.3615E+01  0.1292E+02
     -6.100  0.3682E+01  0.1296E+02
     -6.090  0.3634E+01  0.1300E+02
     -6.080  0.3497E+01  0.1303E+02
     -6.070  0.3309E+01  0.1307E+02
     -6.060  0.3102E+01  0.1310E+02
     -6.050  0.2904E+01  0.1313E+02
     -6.040  0.2732E+01  0.1315E+02
     -6.030  0.2599E+01  0.1318E+02
     -6.020  0.2512E+01  0.1320E+02
     -6.010  0.2472E+01  0.1323E+02
     -6.000  0.2468E+01  0.1325E+02
     -5.990  0.2480E+01  0.1328E+02
     -5.980  0.2486E+01  0.1330E+02
     -5.970  0.2465E+01  0.1333E+02
     -5.960  0.2406E+01  0.1335E+02
     -5.950  0.2315E+01  0.1338E+02
     -5.940  0.2213E+01  0.1340E+02
     -5.930  0.2129E+01  0.1342E+02
     -5.920  0.2089E+01  0.1344E+02
     -5.910  0.2112E+01  0.1346E+02
     -5.900  0.2205E+01  0.1348E+02
     -5.890  0.2353E+01  0.1351E+02
     -5.880  0.2533E+01  0.1353E+02
     -5.870  0.2714E+01  0.1356E+02
     -5.860  0.2872E+01  0.1359E+02
     -5.850  0.2996E+01  0.1362E+02
     -5.840  0.3092E+01  0.1365E+02
     -5.830  0.3177E+01  0.1368E+02
     -5.820  0.3270E+01  0.1371E+02
     -5.810  0.3381E+01  0.1375E+02
     -5.800  0.3505E+01  0.1378E+02
     -5.790  0.3622E+01  0.1382E+02
     -5.780  0.3708E+01  0.1385E+02
     -5.770  0.3747E+01  0.1389E+02
     -5.760  0.3737E+01  0.1393E+02
     -5.750  0.3687E+01  0.1397E+02
     -5.740  0.3615E+01  0.1400E+02
     -5.730  0.3534E+01  0.1404E+02
     -5.720  0.3450E+01  0.1407E+02
     -5.710  0.3361E+01  0.1411E+02
     -5.700  0.3260E+01  0.1414E+02
     -5.690  0.3145E+01  0.1417E+02
     -5.680  0.3014E+01  0.1420E+02
     -5.670  0.2869E+01  0.1423E+02
     -5.660  0.2718E+01  0.1426E+02
     -5.650  0.2570E+01  0.1428E+02
     -5.640  0.2438E+01  0.1431E+02
     -5.630  0.2335E+01  0.1433E+02
     -5.620  0.2273E+01  0.1435E+02
     -5.610  0.2255E+01  0.1437E+02
     -5.600  0.2277E+01  0.1440E+02
     -5.590  0.2325E+01  0.1442E+02
     -5.580  0.2387E+01  0.1444E+02
     -5.570  0.2452E+01  0.1447E+02
     -5.560  0.2520E+01  0.1449E+02
     -5.550  0.2594E+01  0.1452E+02
     -5.540  0.2677E+01  0.1455E+02
     -5.530  0.2763E+01  0.1457E+02
     -5.520  0.2831E+01  0.1460E+02
     -5.510  0.2852E+01  0.1463E+02
     -5.500  0.2796E+01  0.1466E+02
     -5.490  0.2650E+01  0.1469E+02
     -5.480  0.2425E+01  0.1471E+02
     -5.470  0.2152E+01  0.1473E+02
     -5.460  0.1878E+01  0.1475E+02
     -5.450  0.1645E+01  0.1477E+02
     -5.440  0.1482E+01  0.1478E+02
     -5.430  0.1393E+01  0.1480E+02
     -5.420  0.1367E+01  0.1481E+02
     -5.410  0.1384E+01  0.1482E+02
     -5.400  0.1426E+01  0.1484E+02
     -5.390  0.1483E+01  0.1485E+02
     -5.380  0.1549E+01  0.1487E+02
     -5.370  0.1622E+01  0.1488E+02
     -5.360  0.1694E+01  0.1490E+02
     -5.350  0.1752E+01  0.1492E+02
     -5.340  0.1779E+01  0.1494E+02
     -5.330  0.1759E+01  0.1495E+02
     -5.320  0.1684E+01  0.1497E+02
     -5.310  0.1556E+01  0.1499E+02
     -5.300  0.1389E+01  0.1500E+02
     -5.290  0.1204E+01  0.1501E+02
     -5.280  0.1022E+01  0.1502E+02
     -5.270  0.8617E+00  0.1503E+02
     -5.260  0.7291E+00  0.1504E+02
     -5.250  0.6222E+00  0.1504E+02
     -5.240  0.5322E+00  0.1505E+02
     -5.230  0.4499E+00  0.1505E+02
     -5.220  0.3698E+00  0.1506E+02
     -5.210  0.2927E+00  0.1506E+02
     -5.200  0.2243E+00  0.1506E+02
     -5.190  0.1728E+00  0.1507E+02
     -5.180  0.1463E+00  0.1507E+02
     -5.170  0.1511E+00  0.1507E+02
     -5.160  0.1908E+00  0.1507E+02
     -5.150  0.2645E+00  0.1507E+02
     -5.140  0.3660E+00  0.1508E+02
     -5.130  0.4824E+00  0.1508E+02
     -5.120  0.5951E+00  0.1509E+02
     -5.110  0.6827E+00  0.1509E+02
     -5.100  0.7272E+00  0.1510E+02
     -5.090  0.7188E+00  0.1511E+02
     -5.080  0.6591E+00  0.1511E+02
     -5.070  0.5610E+00  0.1512E+02
     -5.060  0.4441E+00  0.1512E+02
     -5.050  0.3288E+00  0.1513E+02
     -5.040  0.2318E+00  0.1513E+02
     -5.030  0.1635E+00  0.1513E+02
     -5.020  0.1281E+00  0.1513E+02
     -5.010  0.1249E+00  0.1513E+02
     -5.000  0.1501E+00  0.1514E+02
     -4.990  0.1965E+00  0.1514E+02
     -4.980  0.2544E+00  0.1514E+02
     -4.970  0.3115E+00  0.1514E+02
     -4.960  0.3550E+00  0.1515E+02
     -4.950  0.3747E+00  0.1515E+02
     -4.940  0.3659E+00  0.1515E+02
     -4.930  0.3308E+00  0.1516E+02
     -4.920  0.2783E+00  0.1516E+02
     -4.910  0.2215E+00  0.1516E+02
     -4.900  0.1755E+00  0.1516E+02
     -4.890  0.1557E+00  0.1517E+02
     -4.880  0.1794E+00  0.1517E+02
     -4.870  0.2672E+00  0.1517E+02
     -4.860  0.4443E+00  0.1518E+02
     -4.850  0.7385E+00  0.1518E+02
     -4.840  0.1173E+01  0.1519E+02
     -4.830  0.1756E+01  0.1521E+02
     -4.820  0.2468E+01  0.1524E+02
     -4.810  0.3255E+01  0.1527E+02
     -4.800  0.4032E+01  0.1531E+02
     -4.790  0.4703E+01  0.1536E+02
     -4.780  0.5180E+01  0.1541E+02
     -4.770  0.5418E+01  0.1546E+02
     -4.760  0.5420E+01  0.1552E+02
     -4.750  0.5239E+01  0.1557E+02
     -4.740  0.4956E+01  0.1562E+02
     -4.730  0.4655E+01  0.1567E+02
     -4.720  0.4402E+01  0.1571E+02
     -4.710  0.4232E+01  0.1575E+02
     -4.700  0.4154E+01  0.1579E+02
     -4.690  0.4157E+01  0.1583E+02
     -4.680  0.4223E+01  0.1588E+02
     -4.670  0.4329E+01  0.1592E+02
     -4.660  0.4446E+01  0.1596E+02
     -4.650  0.4542E+01  0.1601E+02
     -4.640  0.4580E+01  0.1606E+02
     -4.630  0.4526E+01  0.1610E+02
     -4.620  0.4362E+01  0.1614E+02
     -4.610  0.4093E+01  0.1619E+02
     -4.600  0.3750E+01  0.1622E+02
     -4.590  0.3380E+01  0.1626E+02
     -4.580  0.3035E+01  0.1629E+02
     -4.570  0.2757E+01  0.1631E+02
     -4.560  0.2564E+01  0.1634E+02
     -4.550  0.2453E+01  0.1637E+02
     -4.540  0.2401E+01  0.1639E+02
     -4.530  0.2376E+01  0.1641E+02
     -4.520  0.2346E+01  0.1644E+02
     -4.510  0.2282E+01  0.1646E+02
     -4.500  0.2169E+01  0.1648E+02
     -4.490  0.2007E+01  0.1650E+02
     -4.480  0.1809E+01  0.1652E+02
     -4.470  0.1602E+01  0.1654E+02
     -4.460  0.1420E+01  0.1655E+02
     -4.450  0.1299E+01  0.1656E+02
     -4.440  0.1266E+01  0.1657E+02
     -4.430  0.1331E+01  0.1659E+02
     -4.420  0.1486E+01  0.1660E+02
     -4.410  0.1705E+01  0.1662E+02
     -4.400  0.1952E+01  0.1664E+02
     -4.390  0.2187E+01  0.1666E+02
     -4.380  0.2372E+01  0.1669E+02
     -4.370  0.2480E+01  0.1671E+02
     -4.360  0.2497E+01  0.1674E+02
     -4.350  0.2431E+01  0.1676E+02
     -4.340  0.2310E+01  0.1678E+02
     -4.330  0.2174E+01  0.1680E+02
     -4.320  0.2068E+01  0.1682E+02
     -4.310  0.2025E+01  0.1685E+02
     -4.300  0.2052E+01  0.1687E+02
     -4.290  0.2133E+01  0.1689E+02
     -4.280  0.2230E+01  0.1691E+02
     -4.270  0.2306E+01  0.1693E+02
     -4.260  0.2336E+01  0.1696E+02
     -4.250  0.2318E+01  0.1698E+02
     -4.240  0.2269E+01  0.1700E+02
     -4.230  0.2217E+01  0.1702E+02
     -4.220  0.2180E+01  0.1705E+02
     -4.210  0.2161E+01  0.1707E+02
     -4.200  0.2140E+01  0.1709E+02
     -4.190  0.2087E+01  0.1711E+02
     -4.180  0.1973E+01  0.1713E+02
     -4.170  0.1784E+01  0.1715E+02
     -4.160  0.1531E+01  0.1716E+02
     -4.150  0.1243E+01  0.1717E+02
     -4.140  0.9613E+00  0.1718E+02
     -4.130  0.7280E+00  0.1719E+02
     -4.120  0.5780E+00  0.1720E+02
     -4.110  0.5354E+00  0.1720E+02
     -4.100  0.6134E+00  0.1721E+02
     -4.090  0.8135E+00  0.1722E+02
     -4.080  0.1123E+01  0.1723E+02
     -4.070  0.1513E+01  0.1724E+02
     -4.060  0.1938E+01  0.1726E+02
     -4.050  0.2341E+01  0.1729E+02
     -4.040  0.2667E+01  0.1731E+02
     -4.030  0.2878E+01  0.1734E+02
     -4.020  0.2961E+01  0.1737E+02
     -4.010  0.2929E+01  0.1740E+02
     -4.000  0.2817E+01  0.1743E+02
     -3.990  0.2667E+01  0.1746E+02
     -3.980  0.2522E+01  0.1748E+02
     -3.970  0.2424E+01  0.1750E+02
     -3.960  0.2417E+01  0.1753E+02
     -3.950  0.2547E+01  0.1755E+02
     -3.940  0.2852E+01  0.1758E+02
     -3.930  0.3346E+01  0.1762E+02
     -3.920  0.4003E+01  0.1766E+02
     -3.910  0.4744E+01  0.1770E+02
     -3.900  0.5458E+01  0.1776E+02
     -3.890  0.6025E+01  0.1782E+02
     -3.880  0.6357E+01  0.1788E+02
     -3.870  0.6421E+01  0.1795E+02
     -3.860  0.6246E+01  0.1801E+02
     -3.850  0.5904E+01  0.1807E+02
     -3.840  0.5483E+01  0.1812E+02
     -3.830  0.5060E+01  0.1817E+02
     -3.820  0.4680E+01  0.1822E+02
     -3.810  0.4358E+01  0.1826E+02
     -3.800  0.4088E+01  0.1830E+02
     -3.790  0.3850E+01  0.1834E+02
     -3.780  0.3626E+01  0.1838E+02
     -3.770  0.3409E+01  0.1841E+02
     -3.760  0.3198E+01  0.1845E+02
     -3.750  0.3007E+01  0.1848E+02
     -3.740  0.2850E+01  0.1850E+02
     -3.730  0.2742E+01  0.1853E+02
     -3.720  0.2690E+01  0.1856E+02
     -3.710  0.2690E+01  0.1859E+02
     -3.700  0.2725E+01  0.1861E+02
     -3.690  0.2778E+01  0.1864E+02
     -3.680  0.2836E+01  0.1867E+02
     -3.670  0.2902E+01  0.1870E+02
     -3.660  0.2988E+01  0.1873E+02
     -3.650  0.3110E+01  0.1876E+02
     -3.640  0.3277E+01  0.1879E+02
     -3.630  0.3474E+01  0.1883E+02
     -3.620  0.3669E+01  0.1886E+02
     -3.610  0.3818E+01  0.1890E+02
     -3.600  0.3877E+01  0.1894E+02
     -3.590  0.3819E+01  0.1898E+02
     -3.580  0.3639E+01  0.1901E+02
     -3.570  0.3355E+01  0.1905E+02
     -3.560  0.2999E+01  0.1908E+02
     -3.550  0.2612E+01  0.1910E+02
     -3.540  0.2236E+01  0.1913E+02
     -3.530  0.1905E+01  0.1915E+02
     -3.520  0.1643E+01  0.1916E+02
     -3.510  0.1461E+01  0.1918E+02
     -3.500  0.1357E+01  0.1919E+02
     -3.490  0.1313E+01  0.1920E+02
     -3.480  0.1309E+01  0.1922E+02
     -3.470  0.1322E+01  0.1923E+02
     -3.460  0.1336E+01  0.1924E+02
     -3.450  0.1349E+01  0.1926E+02
     -3.440  0.1374E+01  0.1927E+02
     -3.430  0.1435E+01  0.1928E+02
     -3.420  0.1563E+01  0.1930E+02
     -3.410  0.1783E+01  0.1932E+02
     -3.400  0.2109E+01  0.1934E+02
     -3.390  0.2534E+01  0.1936E+02
     -3.380  0.3023E+01  0.1939E+02
     -3.370  0.3523E+01  0.1943E+02
     -3.360  0.3968E+01  0.1947E+02
     -3.350  0.4296E+01  0.1951E+02
     -3.340  0.4460E+01  0.1956E+02
     -3.330  0.4446E+01  0.1960E+02
     -3.320  0.4271E+01  0.1964E+02
     -3.310  0.3976E+01  0.1968E+02
     -3.300  0.3618E+01  0.1972E+02
     -3.290  0.3247E+01  0.1975E+02
     -3.280  0.2897E+01  0.1978E+02
     -3.270  0.2585E+01  0.1981E+02
     -3.260  0.2313E+01  0.1983E+02
     -3.250  0.2078E+01  0.1985E+02
     -3.240  0.1881E+01  0.1987E+02
     -3.230  0.1726E+01  0.1989E+02
     -3.220  0.1623E+01  0.1990E+02
     -3.210  0.1576E+01  0.1992E+02
     -3.200  0.1584E+01  0.1994E+02
     -3.190  0.1636E+01  0.1995E+02
     -3.180  0.1712E+01  0.1997E+02
     -3.170  0.1791E+01  0.1999E+02
     -3.160  0.1852E+01  0.2001E+02
     -3.150  0.1887E+01  0.2002E+02
     -3.140  0.1896E+01  0.2004E+02
     -3.130  0.1888E+01  0.2006E+02
     -3.120  0.1875E+01  0.2008E+02
     -3.110  0.1863E+01  0.2010E+02
     -3.100  0.1851E+01  0.2012E+02
     -3.090  0.1831E+01  0.2014E+02
     -3.080  0.1797E+01  0.2015E+02
     -3.070  0.1747E+01  0.2017E+02
     -3.060  0.1691E+01  0.2019E+02
     -3.050  0.1643E+01  0.2020E+02
     -3.040  0.1620E+01  0.2022E+02
     -3.030  0.1631E+01  0.2024E+02
     -3.020  0.1672E+01  0.2025E+02
     -3.010  0.1728E+01  0.2027E+02
     -3.000  0.1778E+01  0.2029E+02
     -2.990  0.1799E+01  0.2031E+02
     -2.980  0.1778E+01  0.2032E+02
     -2.970  0.1715E+01  0.2034E+02
     -2.960  0.1629E+01  0.2036E+02
     -2.950  0.1555E+01  0.2037E+02
     -2.940  0.1536E+01  0.2039E+02
     -2.930  0.1611E+01  0.2041E+02
     -2.920  0.1806E+01  0.2042E+02
     -2.910  0.2116E+01  0.2044E+02
     -2.900  0.2508E+01  0.2047E+02
     -2.890  0.2924E+01  0.2050E+02
     -2.880  0.3300E+01  0.2053E+02
     -2.870  0.3580E+01  0.2057E+02
     -2.860  0.3734E+01  0.2061E+02
     -2.850  0.3761E+01  0.2064E+02
     -2.840  0.3685E+01  0.2068E+02
     -2.830  0.3549E+01  0.2072E+02
     -2.820  0.3396E+01  0.2075E+02
     -2.810  0.3266E+01  0.2078E+02
     -2.800  0.3185E+01  0.2081E+02
     -2.790  0.3160E+01  0.2085E+02
     -2.780  0.3183E+01  0.2088E+02
     -2.770  0.3232E+01  0.2091E+02
     -2.760  0.3281E+01  0.2094E+02
     -2.750  0.3302E+01  0.2098E+02