 running on   12 total cores
 distrk:  each k-point on   12 cores,    1 groups
 distr:  one band on    1 cores,   12 groups
 using from now: INCAR     
 vasp.5.4.4.18Apr17-6-g9f103f2a35 (build Apr 28 2023 10:04:10) complex          
  
 POSCAR found type information on POSCAR  Mo S 
 POSCAR found :  2 types and       3 ions
 scaLAPACK will be used

 ----------------------------------------------------------------------------- 
|                                                                             |
|           W    W    AA    RRRRR   N    N  II  N    N   GGGG   !!!           |
|           W    W   A  A   R    R  NN   N  II  NN   N  G    G  !!!           |
|           W    W  A    A  R    R  N N  N  II  N N  N  G       !!!           |
|           W WW W  AAAAAA  RRRRR   N  N N  II  N  N N  G  GGG   !            |
|           WW  WW  A    A  R   R   N   NN  II  N   NN  G    G                |
|           W    W  A    A  R    R  N    N  II  N    N   GGGG   !!!           |
|                                                                             |
|      For optimal performance we recommend to set                            |
|        NCORE= 4 - approx SQRT( number of cores)                             |
|      NCORE specifies how many cores store one orbital (NPAR=cpu/NCORE).     |
|      This setting can  greatly improve the performance of VASP for DFT.     |
|      The default,   NCORE=1            might be grossly inefficient         |
|      on modern multi-core architectures or massively parallel machines.     |
|      Do your own testing !!!!                                               |
|      Unfortunately you need to use the default for GW and RPA calculations. |
|      (for HF NCORE is supported but not extensively tested yet)             |
|                                                                             |
 ----------------------------------------------------------------------------- 

 LDA part: xc-table for Pade appr. of Perdew
 found WAVECAR, reading the header
  number of k-points has changed, file:    42 present:    60
  trying to continue reading WAVECAR, but it might fail
 WARNING: stress and forces are not correct
 POSCAR, INCAR and KPOINTS ok, starting setup
 FFT: planning ...
 reading WAVECAR
 the WAVECAR file was read successfully
 charge-density read from file: unknown                                 
 entering main loop
       N       E                     dE             d eps       ncg     rms          rms(c)
DAV:   1    -0.897082773079E+01   -0.89708E+01   -0.84164E+02  4080   0.158E+02
DAV:   2    -0.213274394632E+02   -0.12357E+02   -0.12083E+02  3648   0.452E+01
DAV:   3    -0.214677575204E+02   -0.14032E+00   -0.14026E+00  3792   0.545E+00
DAV:   4    -0.214690923065E+02   -0.13348E-02   -0.13348E-02  3816   0.525E-01
DAV:   5    -0.214691231422E+02   -0.30836E-04   -0.30835E-04  3744   0.787E-02
DAV:   6    -0.214691241102E+02   -0.96794E-06   -0.96793E-06  3660   0.126E-02
DAV:   7    -0.214691241455E+02   -0.35293E-07   -0.35321E-07  3864   0.237E-03
DAV:   8    -0.214691241466E+02   -0.11396E-08   -0.11364E-08  3444   0.392E-04
   1 F= -.21469124E+02 E0= -.21469124E+02  d E =-.204626E-10
 writing wavefunctions
