 vasp.5.4.4.18Apr17-6-g9f103f2a35 (build Apr 28 2023 10:04:10) complex          
  
 executed on             LinuxIFC date 2023.11.23  16:01:55
 running on   12 total cores
 distrk:  each k-point on   12 cores,    1 groups
 distr:  one band on NCORES_PER_BAND=   1 cores,   12 groups


--------------------------------------------------------------------------------------------------------


 INCAR:
 POTCAR:    PAW_PBE Mo_sv 02Feb2006               
 POTCAR:    PAW_PBE S 06Sep2000                   

 ----------------------------------------------------------------------------- 
|                                                                             |
|           W    W    AA    RRRRR   N    N  II  N    N   GGGG   !!!           |
|           W    W   A  A   R    R  NN   N  II  NN   N  G    G  !!!           |
|           W    W  A    A  R    R  N N  N  II  N N  N  G       !!!           |
|           W WW W  AAAAAA  RRRRR   N  N N  II  N  N N  G  GGG   !            |
|           WW  WW  A    A  R   R   N   NN  II  N   NN  G    G                |
|           W    W  A    A  R    R  N    N  II  N    N   GGGG   !!!           |
|                                                                             |
|      For optimal performance we recommend to set                            |
|        NCORE= 4 - approx SQRT( number of cores)                             |
|      NCORE specifies how many cores store one orbital (NPAR=cpu/NCORE).     |
|      This setting can  greatly improve the performance of VASP for DFT.     |
|      The default,   NCORE=1            might be grossly inefficient         |
|      on modern multi-core architectures or massively parallel machines.     |
|      Do your own testing !!!!                                               |
|      Unfortunately you need to use the default for GW and RPA calculations. |
|      (for HF NCORE is supported but not extensively tested yet)             |
|                                                                             |
 ----------------------------------------------------------------------------- 

 POTCAR:    PAW_PBE Mo_sv 02Feb2006               
   VRHFIN =Mo: 4p5s4d                                                           
   LEXCH  = PE                                                                  
   EATOM  =  1862.2866 eV,  136.8742 Ry                                         
                                                                                
   TITEL  = PAW_PBE Mo_sv 02Feb2006                                             
   LULTRA =        F    use ultrasoft PP ?                                      
   IUNSCR =        1    unscreen: 0-lin 1-nonlin 2-no                           
   RPACOR =    2.200    partial core radius                                     
   POMASS =   95.940; ZVAL   =   14.000    mass and valenz                      
   RCORE  =    2.500    outmost cutoff radius                                   
   RWIGS  =    2.750; RWIGS  =    1.455    wigner-seitz radius (au A)           
   ENMAX  =  242.676; ENMIN  =  182.007 eV                                      
   ICORE  =        3    local potential                                         
   LCOR   =        T    correct aug charges                                     
   LPAW   =        T    paw PP                                                  
   EAUG   =  446.014                                                            
   DEXC   =    0.000                                                            
   RMAX   =    2.563    core radius for proj-oper                               
   RAUG   =    1.300    factor for augmentation sphere                          
   RDEP   =    2.641    radius for radial grids                                 
   RDEPT  =    2.031    core radius for aug-charge                              
                                                                                
   Atomic configuration                                                         
   11 entries                                                                   
     n  l   j            E        occ.                                          
     1  0  0.50    -19819.0341   2.0000                                         
     2  0  0.50     -2799.0127   2.0000                                         
     2  1  1.50     -2502.0276   6.0000                                         
     3  0  0.50      -476.4449   2.0000                                         
     3  1  1.50      -379.1496   6.0000                                         
     3  2  2.50      -220.9367  10.0000                                         
     4  0  0.50       -64.3378   2.0000                                         
     5  0  0.50        -4.0862   1.0000                                         
     4  1  1.50       -38.4773   6.0000                                         
     4  2  2.50        -3.7535   5.0000                                         
     4  3  2.50        -1.3606   0.0000                                         
   Description                                                                  
     l       E           TYP  RCUT    TYP  RCUT                                 
     0    -64.3377829     23  2.100                                             
     0     -4.0861640     23  2.400                                             
     1    -38.4772993     23  2.100                                             
     1     13.6058260     23  2.100                                             
     2     -3.7534941     23  2.400                                             
     2     -5.1140767     23  2.400                                             
     3     -4.0817478     23  2.500                                             
  local pseudopotential read in
  partial core-charges read in
  partial kinetic energy density read in
  atomic valenz-charges read in
  non local Contribution for L=           0  read in
    real space projection operators read in
  non local Contribution for L=           0  read in
    real space projection operators read in
  non local Contribution for L=           1  read in
    real space projection operators read in
  non local Contribution for L=           1  read in
    real space projection operators read in
  non local Contribution for L=           2  read in
    real space projection operators read in
  non local Contribution for L=           2  read in
    real space projection operators read in
    PAW grid and wavefunctions read in
 
   number of l-projection  operators is LMAX  =           6
   number of lm-projection operators is LMMAX =          18
 
 POTCAR:    PAW_PBE S 06Sep2000                   
   VRHFIN =S : s2p4                                                             
   LEXCH  = PE                                                                  
   EATOM  =   276.8230 eV,   20.3459 Ry                                         
                                                                                
   TITEL  = PAW_PBE S 06Sep2000                                                 
   LULTRA =        F    use ultrasoft PP ?                                      
   IUNSCR =        1    unscreen: 0-lin 1-nonlin 2-no                           
   RPACOR =    1.500    partial core radius                                     
   POMASS =   32.066; ZVAL   =    6.000    mass and valenz                      
   RCORE  =    1.900    outmost cutoff radius                                   
   RWIGS  =    2.200; RWIGS  =    1.164    wigner-seitz radius (au A)           
   ENMAX  =  258.689; ENMIN  =  194.016 eV                                      
   ICORE  =        2    local potential                                         
   LCOR   =        T    correct aug charges                                     
   LPAW   =        T    paw PP                                                  
   EAUG   =  335.092                                                            
   DEXC   =    0.000                                                            
   RMAX   =    1.942    core radius for proj-oper                               
   RAUG   =    1.300    factor for augmentation sphere                          
   RDEP   =    1.954    radius for radial grids                                 
   RDEPT  =    1.744    core radius for aug-charge                              
                                                                                
   Atomic configuration                                                         
    6 entries                                                                   
     n  l   j            E        occ.                                          
     1  0  0.50     -2405.8406   2.0000                                         
     2  0  0.50      -211.7007   2.0000                                         
     2  1  1.50      -156.4958   6.0000                                         
     3  0  0.50       -17.2562   2.0000                                         
     3  1  0.50        -7.0085   4.0000                                         
     3  2  1.50        -6.8029   0.0000                                         
   Description                                                                  
     l       E           TYP  RCUT    TYP  RCUT                                 
     0    -17.2561641     23  1.900                                             
     0    -15.8743224     23  1.900                                             
     1     -7.0085400     23  1.900                                             
     1     -2.7779785     23  1.900                                             
     2     -6.8029130     23  1.900                                             
  local pseudopotential read in
  partial core-charges read in
  partial kinetic energy density read in
  atomic valenz-charges read in
  non local Contribution for L=           0  read in
    real space projection operators read in
  non local Contribution for L=           0  read in
    real space projection operators read in
  non local Contribution for L=           1  read in
    real space projection operators read in
  non local Contribution for L=           1  read in
    real space projection operators read in
    PAW grid and wavefunctions read in
 
   number of l-projection  operators is LMAX  =           4
   number of lm-projection operators is LMMAX =           8
 
  PAW_PBE Mo_sv 02Feb2006               :
 energy of atom  1       EATOM=-1862.2866
 kinetic energy error for atom=    0.0934 (will be added to EATOM!!)
  PAW_PBE S 06Sep2000                   :
 energy of atom  2       EATOM= -276.8230
 kinetic energy error for atom=    0.0263 (will be added to EATOM!!)
 
 
 POSCAR: Mo2 S4                                  
  positions in direct lattice
  velocities in cartesian coordinates
 exchange correlation table for  LEXCH =        8
   RHO(1)=    0.500       N(1)  =     2000
   RHO(2)=  100.500       N(2)  =     4000
 


--------------------------------------------------------------------------------------------------------


 ion  position               nearest neighbor table
   1  0.667  0.333  0.250-   2 2.41   3 2.41   2 2.41   3 2.41   2 2.41   3 2.41
   2  0.333  0.667  0.354-   1 2.41   1 2.41   1 2.41
   3  0.333  0.667  0.146-   1 2.41   1 2.41   1 2.41
 
  LATTYP: Found a hexagonal cell.
 ALAT       =     3.1838604687
 C/A-ratio  =     4.7112617363
  
  Lattice vectors:
  
 A1 = (   3.1838604687,   0.0000000000,   0.0000000000)
 A2 = (  -1.5919302343,   2.7573040480,   0.0000000000)
 A3 = (   0.0000000000,   0.0000000000,  15.0000000000)


Analysis of symmetry for initial positions (statically):
=====================================================================
 Subroutine PRICEL returns:
 Original cell was already a primitive cell.
 

 Routine SETGRP: Setting up the symmetry group for a 
 hexagonal supercell.


 Subroutine GETGRP returns: Found 12 space group operations
 (whereof  6 operations were pure point group operations)
 out of a pool of 24 trial point group operations.


The static configuration has the point symmetry C_3v.
 The point group associated with its full space group is D_3h.


Analysis of symmetry for dynamics (positions and initial velocities):
=====================================================================
 Subroutine PRICEL returns:
 Original cell was already a primitive cell.
 

 Routine SETGRP: Setting up the symmetry group for a 
 hexagonal supercell.


 Subroutine GETGRP returns: Found 12 space group operations
 (whereof  6 operations were pure point group operations)
 out of a pool of 24 trial point group operations.


The dynamic configuration has the point symmetry C_3v.
 The point group associated with its full space group is D_3h.


 Subroutine INISYM returns: Found 12 space group operations
 (whereof  6 operations are pure point group operations),
 and found     1 'primitive' translations

 
 
 KPOINTS: K-Path Generated by VASPKIT.            
  interpolating k-points between supplied coordinates
  k-points in reciprocal lattice
Space group operators:
 irot       det(A)        alpha          n_x          n_y          n_z        tau_x        tau_y        tau_z
    1     1.000000     0.000000     1.000000     0.000000     0.000000     0.000000     0.000000     0.000000
    2     1.000000   120.000000     0.000000     0.000000    -1.000000     0.000000     0.000000     0.000000
    3     1.000000   120.000000     0.000000     0.000000     1.000000     0.000000     0.000000     0.000000
    4    -1.000000   180.000000     1.000000     0.000000     0.000000     0.000000     0.000000     0.000000
    5    -1.000000   180.000000     0.500000    -0.866025     0.000000     0.000000     0.000000     0.000000
    6    -1.000000   180.000000    -0.500000    -0.866025     0.000000     0.000000     0.000000     0.000000
    7    -1.000000    60.000000     0.000000     0.000000    -1.000000     0.000000     0.000000     0.500000
    8    -1.000000   180.000000     0.000000     0.000000     1.000000     0.000000     0.000000     0.500000
    9    -1.000000    60.000000     0.000000     0.000000     1.000000     0.000000     0.000000     0.500000
   10     1.000000   180.000000     0.866025    -0.500000     0.000000     0.000000     0.000000     0.500000
   11     1.000000   180.000000     0.000000     1.000000     0.000000     0.000000     0.000000     0.500000
   12     1.000000   180.000000     0.866025     0.500000     0.000000     0.000000     0.000000     0.500000


--------------------------------------------------------------------------------------------------------




 Dimension of arrays:
   k-points           NKPTS =     60   k-points in BZ     NKDIM =     60   number of bands    NBANDS=     24
   number of dos      NEDOS =   2001   number of ions     NIONS =      3
   non local maximal  LDIM  =      6   non local SUM 2l+1 LMDIM =     18
   total plane-waves  NPLWV =  11760
   max r-space proj   IRMAX =      1   max aug-charges    IRDMAX=  31440
   dimension x,y,z NGX =    14 NGY =   14 NGZ =   60
   dimension x,y,z NGXF=    28 NGYF=   28 NGZF=  120
   support grid    NGXF=    56 NGYF=   56 NGZF=  240
   ions per type =               1   2
   NGX,Y,Z   is equivalent  to a cutoff of   7.31,  7.31,  6.65 a.u.
   NGXF,Y,Z  is equivalent  to a cutoff of  14.62, 14.62, 13.30 a.u.

 SYSTEM =  unknown system                          
 POSCAR =  Mo2 S4                                  

 Startparameter for this run:
   NWRITE =      2    write-flag & timer
   PREC   = normal    normal or accurate (medium, high low for compatibility)
   ISTART =      1    job   : 0-new  1-cont  2-samecut
   ICHARG =     11    charge: 1-file 2-atom 10-const
   ISPIN  =      1    spin polarized calculation?
   LNONCOLLINEAR =      F non collinear calculations
   LSORBIT =      F    spin-orbit coupling
   INIWAV =      1    electr: 0-lowe 1-rand  2-diag
   LASPH  =      F    aspherical Exc in radial PAW
   METAGGA=      F    non-selfconsistent MetaGGA calc.

 Electronic Relaxation 1
   ENCUT  =  258.7 eV  19.01 Ry    4.36 a.u.   4.18  4.18 19.67*2*pi/ulx,y,z
   ENINI  =  258.7     initial cutoff
   ENAUG  =  446.0 eV  augmentation charge cutoff
   NELM   =     60;   NELMIN=  2; NELMDL=  0     # of ELM steps 
   EDIFF  = 0.1E-07   stopping-criterion for ELM
   LREAL  =      F    real-space projection
   NLSPLINE    = F    spline interpolate recip. space projectors
   LCOMPAT=      F    compatible to vasp.4.4
   GGA_COMPAT  = T    GGA compatible to vasp.4.4-vasp.4.6
   LMAXPAW     = -100 max onsite density
   LMAXMIX     =    2 max onsite mixed and CHGCAR
   VOSKOWN=      0    Vosko Wilk Nusair interpolation
   ROPT   =    0.00000   0.00000
 Ionic relaxation
   EDIFFG = 0.1E-06   stopping-criterion for IOM
   NSW    =      0    number of steps for IOM
   NBLOCK =      1;   KBLOCK =      1    inner block; outer block 
   IBRION =     -1    ionic relax: 0-MD 1-quasi-New 2-CG
   NFREE  =      0    steps in history (QN), initial steepest desc. (CG)
   ISIF   =      2    stress and relaxation
   IWAVPR =     10    prediction:  0-non 1-charg 2-wave 3-comb
   ISYM   =      2    0-nonsym 1-usesym 2-fastsym
   LCORR  =      T    Harris-Foulkes like correction to forces

   POTIM  = 0.5000    time-step for ionic-motion
   TEIN   =    0.0    initial temperature
   TEBEG  =    0.0;   TEEND  =   0.0 temperature during run
   SMASS  =  -3.00    Nose mass-parameter (am)
   estimated Nose-frequenzy (Omega)   =  0.10E-29 period in steps =****** mass=  -0.232E-27a.u.
   SCALEE = 1.0000    scale energy and forces
   NPACO  =    256;   APACO  = 16.0  distance and # of slots for P.C.
   PSTRESS=    0.0 pullay stress

  Mass of Ions in am
   POMASS =  95.94 32.07
  Ionic Valenz
   ZVAL   =  14.00  6.00
  Atomic Wigner-Seitz radii
   RWIGS  =  -1.00 -1.00
  virtual crystal weights 
   VCA    =   1.00  1.00
   NELECT =      26.0000    total number of electrons
   NUPDOWN=      -1.0000    fix difference up-down

 DOS related values:
   EMIN   = -11.00;   EMAX   =  9.00  energy-range for DOS
   EFERMI =   0.00
   ISMEAR =     0;   SIGMA  =   0.05  broadening in eV -4-tet -1-fermi 0-gaus

 Electronic relaxation 2 (details)
   IALGO  =     38    algorithm
   LDIAG  =      T    sub-space diagonalisation (order eigenvalues)
   LSUBROT=      F    optimize rotation matrix (better conditioning)
   TURBO    =      0    0=normal 1=particle mesh
   IRESTART =      0    0=no restart 2=restart with 2 vectors
   NREBOOT  =      0    no. of reboots
   NMIN     =      0    reboot dimension
   EREF     =   0.00    reference energy to select bands
   IMIX   =      4    mixing-type and parameters
     AMIX     =   0.40;   BMIX     =  1.00
     AMIX_MAG =   1.60;   BMIX_MAG =  1.00
     AMIN     =   0.10
     WC   =   100.;   INIMIX=   1;  MIXPRE=   1;  MAXMIX= -45

 Intra band minimization:
   WEIMIN = 0.0000     energy-eigenvalue tresh-hold
   EBREAK =  0.10E-09  absolut break condition
   DEPER  =   0.30     relativ break condition  

   TIME   =   0.40     timestep for ELM

  volume/ion in A,a.u.               =      43.89       296.21
  Fermi-wavevector in a.u.,A,eV,Ry     =   0.953285  1.801447 12.364318  0.908752
  Thomas-Fermi vector in A             =   2.081926
 
 Write flags
   LWAVE        =      T    write WAVECAR
   LDOWNSAMPLE  =      F    k-point downsampling of WAVECAR
   LCHARG       =      T    write CHGCAR
   LVTOT        =      F    write LOCPOT, total local potential
   LVHAR        =      F    write LOCPOT, Hartree potential only
   LELF         =      F    write electronic localiz. function (ELF)
   LORBIT       =     11    0 simple, 1 ext, 2 COOP (PROOUT), +10 PAW based schemes


 Dipole corrections
   LMONO  =      F    monopole corrections only (constant potential shift)
   LDIPOL =      F    correct potential (dipole corrections)
   IDIPOL =      0    1-x, 2-y, 3-z, 4-all directions 
   EPSILON=  1.0000000 bulk dielectric constant

 Exchange correlation treatment:
   GGA     =    --    GGA type
   LEXCH   =     8    internal setting for exchange type
   VOSKOWN=      0    Vosko Wilk Nusair interpolation
   LHFCALC =     F    Hartree Fock is set to
   LHFONE  =     F    Hartree Fock one center treatment
   AEXX    =    0.0000 exact exchange contribution

 Linear response parameters
   LEPSILON=     F    determine dielectric tensor
   LRPA    =     F    only Hartree local field effects (RPA)
   LNABLA  =     F    use nabla operator in PAW spheres
   LVEL    =     F    velocity operator in full k-point grid
   LINTERFAST=   F  fast interpolation
   KINTER  =     0    interpolate to denser k-point grid
   CSHIFT  =0.1000    complex shift for real part using Kramers Kronig
   OMEGAMAX=  -1.0    maximum frequency
   DEG_THRESHOLD= 0.2000000E-02 threshold for treating states as degnerate
   RTIME   =   -0.100 relaxation time in fs
  (WPLASMAI=    0.000 imaginary part of plasma frequency in eV, 0.658/RTIME)
   DFIELD  = 0.0000000 0.0000000 0.0000000 field for delta impulse in time
 
 Orbital magnetization related:
   ORBITALMAG=     F  switch on orbital magnetization
   LCHIMAG   =     F  perturbation theory with respect to B field
   DQ        =  0.001000  dq finite difference perturbation B field
   LLRAUG    =     F  two centre corrections for induced B field



--------------------------------------------------------------------------------------------------------


 Static calculation
 charge density and potential remain constant during run
 non-spin polarized calculation
 Variant of blocked Davidson
 Davidson routine will perform the subspace rotation
 perform sub-space diagonalisation
    after iterative eigenvector-optimisation
 no mixing
 using additional bands           11
 reciprocal scheme for non local part
 use partial core corrections
 calculate Harris-corrections to forces 
   (improved forces if not selfconsistent)
 use gradient corrections 
 WARNING: stress and forces are not correct
  (second derivative of E(xc) not defined)
 use of overlap-Matrix (Vanderbilt PP)
 Gauss-broadening in eV      SIGMA  =   0.05


--------------------------------------------------------------------------------------------------------


  energy-cutoff  :      258.69
  volume of cell :      131.68
      direct lattice vectors                 reciprocal lattice vectors
     3.183860469  0.000000000  0.000000000     0.314084116  0.181336549  0.000000000
    -1.591930234  2.757304048  0.000000000     0.000000000  0.362673098  0.000000000
     0.000000000  0.000000000 15.000000000     0.000000000  0.000000000  0.066666667

  length of vectors
     3.183860469  3.183860469 15.000000000     0.362673098  0.362673098  0.066666667


 
 old parameters found on file WAVECAR:
  energy-cutoff  :      258.69
  volume of cell :      131.68
      direct lattice vectors                 reciprocal lattice vectors
     3.183860469  0.000000000  0.000000000     0.314084116  0.181336549  0.000000000
    -1.591930234  2.757304048  0.000000000     0.000000000  0.362673098  0.000000000
     0.000000000  0.000000000 15.000000000     0.000000000  0.000000000  0.066666667

  length of vectors

 
 k-points in units of 2pi/SCALE and weight: K-Path Generated by VASPKIT.            
   0.00000000  0.00000000  0.00000000       0.017
   0.00826537  0.00477201  0.00000000       0.017
   0.01653074  0.00954403  0.00000000       0.017
   0.02479611  0.01431604  0.00000000       0.017
   0.03306149  0.01908806  0.00000000       0.017
   0.04132686  0.02386007  0.00000000       0.017
   0.04959223  0.02863209  0.00000000       0.017
   0.05785760  0.03340410  0.00000000       0.017
   0.06612297  0.03817612  0.00000000       0.017
   0.07438834  0.04294813  0.00000000       0.017
   0.08265371  0.04772014  0.00000000       0.017
   0.09091909  0.05249216  0.00000000       0.017
   0.09918446  0.05726417  0.00000000       0.017
   0.10744983  0.06203619  0.00000000       0.017
   0.11571520  0.06680820  0.00000000       0.017
   0.12398057  0.07158022  0.00000000       0.017
   0.13224594  0.07635223  0.00000000       0.017
   0.14051131  0.08112425  0.00000000       0.017
   0.14877669  0.08589626  0.00000000       0.017
   0.15704206  0.09066827  0.00000000       0.017
   0.15704206  0.09066827  0.00000000       0.017
   0.15428693  0.09544029  0.00000000       0.017
   0.15153181  0.10021230  0.00000000       0.017
   0.14877669  0.10498432  0.00000000       0.017
   0.14602156  0.10975633  0.00000000       0.017
   0.14326644  0.11452835  0.00000000       0.017
   0.14051131  0.11930036  0.00000000       0.017
   0.13775619  0.12407238  0.00000000       0.017
   0.13500107  0.12884439  0.00000000       0.017
   0.13224594  0.13361640  0.00000000       0.017
   0.12949082  0.13838842  0.00000000       0.017
   0.12673570  0.14316043  0.00000000       0.017
   0.12398057  0.14793245  0.00000000       0.017
   0.12122545  0.15270446  0.00000000       0.017
   0.11847032  0.15747648  0.00000000       0.017
   0.11571520  0.16224849  0.00000000       0.017
   0.11296008  0.16702051  0.00000000       0.017
   0.11020495  0.17179252  0.00000000       0.017
   0.10744983  0.17656453  0.00000000       0.017
   0.10469471  0.18133655  0.00000000       0.017
   0.10469471  0.18133655  0.00000000       0.017
   0.09918446  0.17179252  0.00000000       0.017
   0.09367421  0.16224849  0.00000000       0.017
   0.08816396  0.15270446  0.00000000       0.017
   0.08265371  0.14316043  0.00000000       0.017
   0.07714347  0.13361640  0.00000000       0.017
   0.07163322  0.12407238  0.00000000       0.017
   0.06612297  0.11452835  0.00000000       0.017
   0.06061272  0.10498432  0.00000000       0.017
   0.05510248  0.09544029  0.00000000       0.017
   0.04959223  0.08589626  0.00000000       0.017
   0.04408198  0.07635223  0.00000000       0.017
   0.03857173  0.06680820  0.00000000       0.017
   0.03306149  0.05726417  0.00000000       0.017
   0.02755124  0.04772014  0.00000000       0.017
   0.02204099  0.03817612  0.00000000       0.017
   0.01653074  0.02863209  0.00000000       0.017
   0.01102050  0.01908806  0.00000000       0.017
   0.00551025  0.00954403  0.00000000       0.017
   0.00000000  0.00000000  0.00000000       0.017
 
 k-points in reciprocal lattice and weights: K-Path Generated by VASPKIT.            
   0.00000000  0.00000000  0.00000000       0.017
   0.02631579  0.00000000  0.00000000       0.017
   0.05263158  0.00000000  0.00000000       0.017
   0.07894737  0.00000000  0.00000000       0.017
   0.10526316  0.00000000  0.00000000       0.017
   0.13157895  0.00000000  0.00000000       0.017
   0.15789474  0.00000000  0.00000000       0.017
   0.18421053  0.00000000  0.00000000       0.017
   0.21052632  0.00000000  0.00000000       0.017
   0.23684211  0.00000000  0.00000000       0.017
   0.26315789  0.00000000  0.00000000       0.017
   0.28947368  0.00000000  0.00000000       0.017
   0.31578947  0.00000000  0.00000000       0.017
   0.34210526  0.00000000  0.00000000       0.017
   0.36842105  0.00000000  0.00000000       0.017
   0.39473684  0.00000000  0.00000000       0.017
   0.42105263  0.00000000  0.00000000       0.017
   0.44736842  0.00000000  0.00000000       0.017
   0.47368421  0.00000000  0.00000000       0.017
   0.50000000  0.00000000  0.00000000       0.017
   0.50000000  0.00000000  0.00000000       0.017
   0.49122807  0.01754386  0.00000000       0.017
   0.48245614  0.03508772  0.00000000       0.017
   0.47368421  0.05263158  0.00000000       0.017
   0.46491228  0.07017544  0.00000000       0.017
   0.45614035  0.08771930  0.00000000       0.017
   0.44736842  0.10526316  0.00000000       0.017
   0.43859649  0.12280702  0.00000000       0.017
   0.42982456  0.14035088  0.00000000       0.017
   0.42105263  0.15789474  0.00000000       0.017
   0.41228070  0.17543860  0.00000000       0.017
   0.40350877  0.19298246  0.00000000       0.017
   0.39473684  0.21052632  0.00000000       0.017
   0.38596491  0.22807018  0.00000000       0.017
   0.37719298  0.24561404  0.00000000       0.017
   0.36842105  0.26315789  0.00000000       0.017
   0.35964912  0.28070175  0.00000000       0.017
   0.35087719  0.29824561  0.00000000       0.017
   0.34210526  0.31578947  0.00000000       0.017
   0.33333333  0.33333333  0.00000000       0.017
   0.33333333  0.33333333  0.00000000       0.017
   0.31578947  0.31578947  0.00000000       0.017
   0.29824561  0.29824561  0.00000000       0.017
   0.28070175  0.28070175  0.00000000       0.017
   0.26315789  0.26315789  0.00000000       0.017
   0.24561404  0.24561404  0.00000000       0.017
   0.22807018  0.22807018  0.00000000       0.017
   0.21052632  0.21052632  0.00000000       0.017
   0.19298246  0.19298246  0.00000000       0.017
   0.17543860  0.17543860  0.00000000       0.017
   0.15789474  0.15789474  0.00000000       0.017
   0.14035088  0.14035088  0.00000000       0.017
   0.12280702  0.12280702  0.00000000       0.017
   0.10526316  0.10526316  0.00000000       0.017
   0.08771930  0.08771930  0.00000000       0.017
   0.07017544  0.07017544  0.00000000       0.017
   0.05263158  0.05263158  0.00000000       0.017
   0.03508772  0.03508772  0.00000000       0.017
   0.01754386  0.01754386  0.00000000       0.017
   0.00000000  0.00000000  0.00000000       0.017
 
 position of ions in fractional coordinates (direct lattice) 
   0.66666669  0.33333334  0.25000000
   0.33333334  0.66666669  0.35415213
   0.33333334  0.66666669  0.14584787
 
 position of ions in cartesian coordinates  (Angst):
   1.59193028  0.91910138  3.75000000
  -0.00000000  1.83820275  5.31228195
  -0.00000000  1.83820275  2.18771805
 


--------------------------------------------------------------------------------------------------------


 k-point  1 :   0.0000 0.0000 0.0000  plane waves:    1221
 k-point  2 :   0.0263 0.0000 0.0000  plane waves:    1223
 k-point  3 :   0.0526 0.0000 0.0000  plane waves:    1229
 k-point  4 :   0.0789 0.0000 0.0000  plane waves:    1231
 k-point  5 :   0.1053 0.0000 0.0000  plane waves:    1225
 k-point  6 :   0.1316 0.0000 0.0000  plane waves:    1231
 k-point  7 :   0.1579 0.0000 0.0000  plane waves:    1237
 k-point  8 :   0.1842 0.0000 0.0000  plane waves:    1241
 k-point  9 :   0.2105 0.0000 0.0000  plane waves:    1241
 k-point 10 :   0.2368 0.0000 0.0000  plane waves:    1235
 k-point 11 :   0.2632 0.0000 0.0000  plane waves:    1239
 k-point 12 :   0.2895 0.0000 0.0000  plane waves:    1237
 k-point 13 :   0.3158 0.0000 0.0000  plane waves:    1247
 k-point 14 :   0.3421 0.0000 0.0000  plane waves:    1257
 k-point 15 :   0.3684 0.0000 0.0000  plane waves:    1257
 k-point 16 :   0.3947 0.0000 0.0000  plane waves:    1250
 k-point 17 :   0.4211 0.0000 0.0000  plane waves:    1256
 k-point 18 :   0.4474 0.0000 0.0000  plane waves:    1260
 k-point 19 :   0.4737 0.0000 0.0000  plane waves:    1266
 k-point 20 :   0.5000 0.0000 0.0000  plane waves:    1256
 k-point 21 :   0.5000 0.0000 0.0000  plane waves:    1256
 k-point 22 :   0.4912 0.0175 0.0000  plane waves:    1260
 k-point 23 :   0.4825 0.0351 0.0000  plane waves:    1256
 k-point 24 :   0.4737 0.0526 0.0000  plane waves:    1252
 k-point 25 :   0.4649 0.0702 0.0000  plane waves:    1258
 k-point 26 :   0.4561 0.0877 0.0000  plane waves:    1252
 k-point 27 :   0.4474 0.1053 0.0000  plane waves:    1256
 k-point 28 :   0.4386 0.1228 0.0000  plane waves:    1252
 k-point 29 :   0.4298 0.1404 0.0000  plane waves:    1244
 k-point 30 :   0.4211 0.1579 0.0000  plane waves:    1240
 k-point 31 :   0.4123 0.1754 0.0000  plane waves:    1240
 k-point 32 :   0.4035 0.1930 0.0000  plane waves:    1240
 k-point 33 :   0.3947 0.2105 0.0000  plane waves:    1246
 k-point 34 :   0.3860 0.2281 0.0000  plane waves:    1246
 k-point 35 :   0.3772 0.2456 0.0000  plane waves:    1250
 k-point 36 :   0.3684 0.2632 0.0000  plane waves:    1258
 k-point 37 :   0.3596 0.2807 0.0000  plane waves:    1254
 k-point 38 :   0.3509 0.2982 0.0000  plane waves:    1262
 k-point 39 :   0.3421 0.3158 0.0000  plane waves:    1262
 k-point 40 :   0.3333 0.3333 0.0000  plane waves:    1266
 k-point 41 :   0.3333 0.3333 0.0000  plane waves:    1266
 k-point 42 :   0.3158 0.3158 0.0000  plane waves:    1254
 k-point 43 :   0.2982 0.2982 0.0000  plane waves:    1250
 k-point 44 :   0.2807 0.2807 0.0000  plane waves:    1254
 k-point 45 :   0.2632 0.2632 0.0000  plane waves:    1248
 k-point 46 :   0.2456 0.2456 0.0000  plane waves:    1246
 k-point 47 :   0.2281 0.2281 0.0000  plane waves:    1238
 k-point 48 :   0.2105 0.2105 0.0000  plane waves:    1244
 k-point 49 :   0.1930 0.1930 0.0000  plane waves:    1242
 k-point 50 :   0.1754 0.1754 0.0000  plane waves:    1230
 k-point 51 :   0.1579 0.1579 0.0000  plane waves:    1236
 k-point 52 :   0.1404 0.1404 0.0000  plane waves:    1240
 k-point 53 :   0.1228 0.1228 0.0000  plane waves:    1236
 k-point 54 :   0.1053 0.1053 0.0000  plane waves:    1240
 k-point 55 :   0.0877 0.0877 0.0000  plane waves:    1222
 k-point 56 :   0.0702 0.0702 0.0000  plane waves:    1231
 k-point 57 :   0.0526 0.0526 0.0000  plane waves:    1233
 k-point 58 :   0.0351 0.0351 0.0000  plane waves:    1231
 k-point 59 :   0.0175 0.0175 0.0000  plane waves:    1219
 k-point 60 :   0.0000 0.0000 0.0000  plane waves:    1221

 maximum and minimum number of plane-waves per node :      1266     1219

 maximum number of plane-waves:      1266
 maximum index in each direction: 
   IXMAX=    4   IYMAX=    4   IZMAX=   19
   IXMIN=   -4   IYMIN=   -4   IZMIN=  -19


 serial   3D FFT for wavefunctions
 parallel 3D FFT for charge:
    minimum data exchange during FFTs selected (reduces bandwidth)


 total amount of memory used by VASP MPI-rank0    56928. kBytes
=======================================================================

   base      :      30000. kBytes
   nonl-proj :      22041. kBytes
   fftplans  :       1286. kBytes
   grid      :       1044. kBytes
   one-center:         46. kBytes
   wavefun   :       2511. kBytes
 
     INWAV:  cpu time    0.1032: real time    0.1185
 initial charge density was supplied:
 number of electron      26.0000001 magnetization 
 keeping initial charge density in first step


--------------------------------------------------------------------------------------------------------


 Maximum index for augmentation-charges         2774 (set IRDMAX)


--------------------------------------------------------------------------------------------------------


 First call to EWALD:  gamma=   0.348
 Maximum number of real-space cells 5x 5x 1
 Maximum number of reciprocal cells 2x 2x 7

    FEWALD:  cpu time    0.0033: real time    0.0033


--------------------------------------- Iteration      1(   1)  ---------------------------------------


    POTLOK:  cpu time    0.0135: real time    0.7102
    SETDIJ:  cpu time    0.0114: real time    0.0114
     EDDAV:  cpu time    1.0345: real time    1.0357
       DOS:  cpu time    0.0016: real time    0.0016
    --------------------------------------------
      LOOP:  cpu time    1.0611: real time    1.7589

 eigenvalue-minimisations  :  4080
 total energy-change (2. order) :-0.8970828E+01  (-0.8416416E+02)
 number of electron      26.0000001 magnetization 
 augmentation part       26.0000001 magnetization 

 Free energy of the ion-electron system (eV)
  ---------------------------------------------------
  alpha Z        PSCENC =        35.92459719
  Ewald energy   TEWEN  =      2754.58837668
  -Hartree energ DENC   =     -4899.32017544
  -exchange      EXHF   =         0.00000000
  -V(xc)+E(xc)   XCENC  =        90.81144211
  PAW double counting   =      3040.26826405    -3019.28142480
  entropy T*S    EENTRO =        -0.00000000
  eigenvalues    EBANDS =      -427.74852757
  atomic energy  EATOM  =      2415.78662005
  Solvation  Ediel_sol  =         0.00000000
  ---------------------------------------------------
  free energy    TOTEN  =        -8.97082773 eV

  energy without entropy =       -8.97082773  energy(sigma->0) =       -8.97082773


--------------------------------------------------------------------------------------------------------




--------------------------------------- Iteration      1(   2)  ---------------------------------------


     EDDAV:  cpu time    0.9292: real time    0.9306
       DOS:  cpu time    0.0016: real time    0.0016
    --------------------------------------------
      LOOP:  cpu time    0.9308: real time    0.9322

 eigenvalue-minimisations  :  3648
 total energy-change (2. order) :-0.1235661E+02  (-0.1208342E+02)
 number of electron      26.0000001 magnetization 
 augmentation part       26.0000001 magnetization 

 Free energy of the ion-electron system (eV)
  ---------------------------------------------------
  alpha Z        PSCENC =        35.92459719
  Ewald energy   TEWEN  =      2754.58837668
  -Hartree energ DENC   =     -4899.32017544
  -exchange      EXHF   =         0.00000000
  -V(xc)+E(xc)   XCENC  =        90.81144211
  PAW double counting   =      3040.26826405    -3019.28142480
  entropy T*S    EENTRO =        -0.00000000
  eigenvalues    EBANDS =      -440.10513930
  atomic energy  EATOM  =      2415.78662005
  Solvation  Ediel_sol  =         0.00000000
  ---------------------------------------------------
  free energy    TOTEN  =       -21.32743946 eV

  energy without entropy =      -21.32743946  energy(sigma->0) =      -21.32743946


--------------------------------------------------------------------------------------------------------




--------------------------------------- Iteration      1(   3)  ---------------------------------------


     EDDAV:  cpu time    0.9620: real time    0.9630
       DOS:  cpu time    0.0016: real time    0.0016
    --------------------------------------------
      LOOP:  cpu time    0.9636: real time    0.9646

 eigenvalue-minimisations  :  3792
 total energy-change (2. order) :-0.1403181E+00  (-0.1402596E+00)
 number of electron      26.0000001 magnetization 
 augmentation part       26.0000001 magnetization 

 Free energy of the ion-electron system (eV)
  ---------------------------------------------------
  alpha Z        PSCENC =        35.92459719
  Ewald energy   TEWEN  =      2754.58837668
  -Hartree energ DENC   =     -4899.32017544
  -exchange      EXHF   =         0.00000000
  -V(xc)+E(xc)   XCENC  =        90.81144211
  PAW double counting   =      3040.26826405    -3019.28142480
  entropy T*S    EENTRO =        -0.00000000
  eigenvalues    EBANDS =      -440.24545736
  atomic energy  EATOM  =      2415.78662005
  Solvation  Ediel_sol  =         0.00000000
  ---------------------------------------------------
  free energy    TOTEN  =       -21.46775752 eV

  energy without entropy =      -21.46775752  energy(sigma->0) =      -21.46775752


--------------------------------------------------------------------------------------------------------




--------------------------------------- Iteration      1(   4)  ---------------------------------------


     EDDAV:  cpu time    0.9663: real time    0.9680
       DOS:  cpu time    0.0016: real time    0.0016
    --------------------------------------------
      LOOP:  cpu time    0.9679: real time    0.9696

 eigenvalue-minimisations  :  3816
 total energy-change (2. order) :-0.1334786E-02  (-0.1334757E-02)
 number of electron      26.0000001 magnetization 
 augmentation part       26.0000001 magnetization 

 Free energy of the ion-electron system (eV)
  ---------------------------------------------------
  alpha Z        PSCENC =        35.92459719
  Ewald energy   TEWEN  =      2754.58837668
  -Hartree energ DENC   =     -4899.32017544
  -exchange      EXHF   =         0.00000000
  -V(xc)+E(xc)   XCENC  =        90.81144211
  PAW double counting   =      3040.26826405    -3019.28142480
  entropy T*S    EENTRO =        -0.00000000
  eigenvalues    EBANDS =      -440.24679214
  atomic energy  EATOM  =      2415.78662005
  Solvation  Ediel_sol  =         0.00000000
  ---------------------------------------------------
  free energy    TOTEN  =       -21.46909231 eV

  energy without entropy =      -21.46909231  energy(sigma->0) =      -21.46909231


--------------------------------------------------------------------------------------------------------




--------------------------------------- Iteration      1(   5)  ---------------------------------------


     EDDAV:  cpu time    0.9539: real time    0.9549
       DOS:  cpu time    0.0016: real time    0.0016
    --------------------------------------------
      LOOP:  cpu time    0.9555: real time    0.9564

 eigenvalue-minimisations  :  3744
 total energy-change (2. order) :-0.3083568E-04  (-0.3083497E-04)
 number of electron      26.0000001 magnetization 
 augmentation part       26.0000001 magnetization 

 Free energy of the ion-electron system (eV)
  ---------------------------------------------------
  alpha Z        PSCENC =        35.92459719
  Ewald energy   TEWEN  =      2754.58837668
  -Hartree energ DENC   =     -4899.32017544
  -exchange      EXHF   =         0.00000000
  -V(xc)+E(xc)   XCENC  =        90.81144211
  PAW double counting   =      3040.26826405    -3019.28142480
  entropy T*S    EENTRO =        -0.00000000
  eigenvalues    EBANDS =      -440.24682298
  atomic energy  EATOM  =      2415.78662005
  Solvation  Ediel_sol  =         0.00000000
  ---------------------------------------------------
  free energy    TOTEN  =       -21.46912314 eV

  energy without entropy =      -21.46912314  energy(sigma->0) =      -21.46912314


--------------------------------------------------------------------------------------------------------




--------------------------------------- Iteration      1(   6)  ---------------------------------------


     EDDAV:  cpu time    0.9413: real time    0.9425
       DOS:  cpu time    0.0016: real time    0.0016
    --------------------------------------------
      LOOP:  cpu time    0.9429: real time    0.9441

 eigenvalue-minimisations  :  3660
 total energy-change (2. order) :-0.9679416E-06  (-0.9679278E-06)
 number of electron      26.0000001 magnetization 
 augmentation part       26.0000001 magnetization 

 Free energy of the ion-electron system (eV)
  ---------------------------------------------------
  alpha Z        PSCENC =        35.92459719
  Ewald energy   TEWEN  =      2754.58837668
  -Hartree energ DENC   =     -4899.32017544
  -exchange      EXHF   =         0.00000000
  -V(xc)+E(xc)   XCENC  =        90.81144211
  PAW double counting   =      3040.26826405    -3019.28142480
  entropy T*S    EENTRO =        -0.00000000
  eigenvalues    EBANDS =      -440.24682395
  atomic energy  EATOM  =      2415.78662005
  Solvation  Ediel_sol  =         0.00000000
  ---------------------------------------------------
  free energy    TOTEN  =       -21.46912411 eV

  energy without entropy =      -21.46912411  energy(sigma->0) =      -21.46912411


--------------------------------------------------------------------------------------------------------




--------------------------------------- Iteration      1(   7)  ---------------------------------------


     EDDAV:  cpu time    0.9855: real time    0.9875
       DOS:  cpu time    0.0016: real time    0.0016
    --------------------------------------------
      LOOP:  cpu time    0.9871: real time    0.9891

 eigenvalue-minimisations  :  3864
 total energy-change (2. order) :-0.3529294E-07  (-0.3532111E-07)
 number of electron      26.0000001 magnetization 
 augmentation part       26.0000001 magnetization 

 Free energy of the ion-electron system (eV)
  ---------------------------------------------------
  alpha Z        PSCENC =        35.92459719
  Ewald energy   TEWEN  =      2754.58837668
  -Hartree energ DENC   =     -4899.32017544
  -exchange      EXHF   =         0.00000000
  -V(xc)+E(xc)   XCENC  =        90.81144211
  PAW double counting   =      3040.26826405    -3019.28142480
  entropy T*S    EENTRO =        -0.00000000
  eigenvalues    EBANDS =      -440.24682398
  atomic energy  EATOM  =      2415.78662005
  Solvation  Ediel_sol  =         0.00000000
  ---------------------------------------------------
  free energy    TOTEN  =       -21.46912415 eV

  energy without entropy =      -21.46912415  energy(sigma->0) =      -21.46912415


--------------------------------------------------------------------------------------------------------




--------------------------------------- Iteration      1(   8)  ---------------------------------------


     EDDAV:  cpu time    0.8963: real time    0.8974
       DOS:  cpu time    0.0016: real time    0.0016
    --------------------------------------------
      LOOP:  cpu time    0.8979: real time    0.8990

 eigenvalue-minimisations  :  3444
 total energy-change (2. order) :-0.1139597E-08  (-0.1136390E-08)
 number of electron      26.0000001 magnetization 
 augmentation part       26.0000001 magnetization 

 Free energy of the ion-electron system (eV)
  ---------------------------------------------------
  alpha Z        PSCENC =        35.92459719
  Ewald energy   TEWEN  =      2754.58837668
  -Hartree energ DENC   =     -4899.32017544
  -exchange      EXHF   =         0.00000000
  -V(xc)+E(xc)   XCENC  =        90.81144211
  PAW double counting   =      3040.26826405    -3019.28142480
  entropy T*S    EENTRO =        -0.00000000
  eigenvalues    EBANDS =      -440.24682398
  atomic energy  EATOM  =      2415.78662005
  Solvation  Ediel_sol  =         0.00000000
  ---------------------------------------------------
  free energy    TOTEN  =       -21.46912415 eV

  energy without entropy =      -21.46912415  energy(sigma->0) =      -21.46912415


--------------------------------------------------------------------------------------------------------




 average (electrostatic) potential at core
  the test charge radii are     1.0818  0.9698
  (the norm of the test charge is              1.0000)
       1 -82.3279       2 -92.0334       3 -92.0334
 
 
 
 E-fermi :  -0.5200     XC(G=0):  -5.1106     alpha+bet : -5.4812


 k-point     1 :       0.0000    0.0000    0.0000
  band No.  band energies     occupation 
      1     -61.5715      2.00000
      2     -35.7364      2.00000
      3     -35.5282      2.00000
      4     -35.5282      2.00000
      5     -14.8128      2.00000
      6     -13.5094      2.00000
      7      -6.3384      2.00000
      8      -3.3373      2.00000
      9      -3.3373      2.00000
     10      -2.4989      2.00000
     11      -2.2294      2.00000
     12      -2.2294      2.00000
     13      -0.7326      2.00000
     14       2.0339      0.00000
     15       2.0339      0.00000
     16       2.2758      0.00000
     17       2.2758      0.00000
     18       4.5374      0.00000
     19       5.1038      0.00000
     20       5.4998      0.00000
     21       6.6029      0.00000
     22       8.3570      0.00000
     23       8.7900      0.00000
     24      10.2305      0.00000

 k-point     2 :       0.0263    0.0000    0.0000
  band No.  band energies     occupation 
      1     -61.5712      2.00000
      2     -35.7361      2.00000
      3     -35.5311      2.00000
      4     -35.5287      2.00000
      5     -14.8025      2.00000
      6     -13.5052      2.00000
      7      -6.3264      2.00000
      8      -3.3617      2.00000
      9      -3.3266      2.00000
     10      -2.5928      2.00000
     11      -2.2469      2.00000
     12      -2.1511      2.00000
     13      -0.7368      2.00000
     14       2.0156      0.00000
     15       2.0521      0.00000
     16       2.2447      0.00000
     17       2.2646      0.00000
     18       4.5572      0.00000
     19       5.1173      0.00000
     20       5.5466      0.00000
     21       6.6191      0.00000
     22       8.4070      0.00000
     23       8.8016      0.00000
     24      10.1578      0.00000

 k-point     3 :       0.0526    0.0000    0.0000
  band No.  band energies     occupation 
      1     -61.5705      2.00000
      2     -35.7346      2.00000
      3     -35.5392      2.00000
      4     -35.5309      2.00000
      5     -14.7717      2.00000
      6     -13.4926      2.00000
      7      -6.2908      2.00000
      8      -3.4322      2.00000
      9      -3.2943      2.00000
     10      -2.7652      2.00000
     11      -2.2983      2.00000
     12      -2.0253      2.00000
     13      -0.7512      2.00000
     14       1.9689      0.00000
     15       2.1067      0.00000
     16       2.1553      0.00000
     17       2.2293      0.00000
     18       4.6128      0.00000
     19       5.1575      0.00000
     20       5.6827      0.00000
     21       6.6677      0.00000
     22       8.5506      0.00000
     23       8.8368      0.00000
     24      10.0023      0.00000

 k-point     4 :       0.0789    0.0000    0.0000
  band No.  band energies     occupation 
      1     -61.5693      2.00000
      2     -35.7322      2.00000
      3     -35.5521      2.00000
      4     -35.5338      2.00000
      5     -14.7209      2.00000
      6     -13.4718      2.00000
      7      -6.2330      2.00000
      8      -3.5440      2.00000
      9      -3.2413      2.00000
     10      -2.9569      2.00000
     11      -2.3778      2.00000
     12      -1.9141      2.00000
     13      -0.7788      2.00000
     14       1.9102      0.00000
     15       2.0259      0.00000
     16       2.1729      0.00000
     17       2.1939      0.00000
     18       4.6970      0.00000
     19       5.2239      0.00000
     20       5.8947      0.00000
     21       6.7503      0.00000
     22       8.7661      0.00000
     23       8.9015      0.00000
     24       9.8172      0.00000

 k-point     5 :       0.1053    0.0000    0.0000
  band No.  band energies     occupation 
      1     -61.5676      2.00000
      2     -35.7283      2.00000
      3     -35.5691      2.00000
      4     -35.5379      2.00000
      5     -14.6510      2.00000
      6     -13.4431      2.00000
      7      -6.1553      2.00000
      8      -3.6876      2.00000
      9      -3.1688      2.00000
     10      -3.1563      2.00000
     11      -2.4808      2.00000
     12      -1.8351      2.00000
     13      -0.8230      2.00000
     14       1.8576      0.00000
     15       1.8788      0.00000
     16       2.1003      0.00000
     17       2.3065      0.00000
     18       4.8041      0.00000
     19       5.3158      0.00000
     20       6.1595      0.00000
     21       6.8741      0.00000
     22       8.9338      0.00000
     23       9.0816      0.00000
     24       9.6257      0.00000

 k-point     6 :       0.1316    0.0000    0.0000
  band No.  band energies     occupation 
      1     -61.5656      2.00000
      2     -35.7243      2.00000
      3     -35.5905      2.00000
      4     -35.5430      2.00000
      5     -14.5630      2.00000
      6     -13.4071      2.00000
      7      -6.0626      2.00000
      8      -3.8544      2.00000
      9      -3.3606      2.00000
     10      -3.0782      2.00000
     11      -2.6014      2.00000
     12      -1.7961      2.00000
     13      -0.8901      2.00000
     14       1.7328      0.00000
     15       1.8290      0.00000
     16       2.0156      0.00000
     17       2.4360      0.00000
     18       4.9313      0.00000
     19       5.4319      0.00000
     20       6.4381      0.00000
     21       7.0544      0.00000
     22       9.0191      0.00000
     23       9.3451      0.00000
     24       9.4310      0.00000

 k-point     7 :       0.1579    0.0000    0.0000
  band No.  band energies     occupation 
      1     -61.5632      2.00000
      2     -35.7202      2.00000
      3     -35.6150      2.00000
      4     -35.5487      2.00000
      5     -14.4584      2.00000
      6     -13.3643      2.00000
      7      -5.9610      2.00000
      8      -4.0317      2.00000
      9      -3.5672      2.00000
     10      -2.9716      2.00000
     11      -2.7328      2.00000
     12      -1.8001      2.00000
     13      -0.9830      2.00000
     14       1.6073      0.00000
     15       1.8383      0.00000
     16       1.9241      0.00000
     17       2.5751      0.00000
     18       5.0780      0.00000
     19       5.5709      0.00000
     20       6.6863      0.00000
     21       7.3088      0.00000
     22       9.0756      0.00000
     23       9.2460      0.00000
     24       9.5259      0.00000

 k-point     8 :       0.1842    0.0000    0.0000
  band No.  band energies     occupation 
      1     -61.5606      2.00000
      2     -35.7150      2.00000
      3     -35.6425      2.00000
      4     -35.5551      2.00000
      5     -14.3389      2.00000
      6     -13.3155      2.00000
      7      -5.8599      2.00000
      8      -4.2079      2.00000
      9      -3.7748      2.00000
     10      -2.8697      2.00000
     11      -2.8520      2.00000
     12      -1.8424      2.00000
     13      -1.1008      2.00000
     14       1.5146      0.00000
     15       1.8315      0.00000
     16       1.8901      0.00000
     17       2.7168      0.00000
     18       5.2434      0.00000
     19       5.7313      0.00000
     20       6.8876      0.00000
     21       7.6208      0.00000
     22       9.0405      0.00000
     23       9.0744      0.00000
     24       9.5906      0.00000

 k-point     9 :       0.2105    0.0000    0.0000
  band No.  band energies     occupation 
      1     -61.5577      2.00000
      2     -35.7090      2.00000
      3     -35.6719      2.00000
      4     -35.5619      2.00000
      5     -14.2068      2.00000
      6     -13.2617      2.00000
      7      -5.7733      2.00000
      8      -4.3671      2.00000
      9      -3.9827      2.00000
     10      -3.0078      2.00000
     11      -2.7217      2.00000
     12      -1.9146      2.00000
     13      -1.2370      2.00000
     14       1.4597      0.00000
     15       1.7428      0.00000
     16       1.9825      0.00000
     17       2.8560      0.00000
     18       5.4267      0.00000
     19       5.9108      0.00000
     20       7.0571      0.00000
     21       7.9213      0.00000
     22       8.8659      0.00000
     23       8.9301      0.00000
     24       9.6647      0.00000

 k-point    10 :       0.2368    0.0000    0.0000
  band No.  band energies     occupation 
      1     -61.5546      2.00000
      2     -35.7027      2.00000
      3     -35.7020      2.00000
      4     -35.5687      2.00000
      5     -14.0645      2.00000
      6     -13.2040      2.00000
      7      -5.7205      2.00000
      8      -4.4934      2.00000
      9      -4.1896      2.00000
     10      -3.1428      2.00000
     11      -2.5849      2.00000
     12      -2.0056      2.00000
     13      -1.3794      2.00000
     14       1.4426      0.00000
     15       1.6623      0.00000
     16       2.1083      0.00000
     17       2.9873      0.00000
     18       5.6264      0.00000
     19       6.1060      0.00000
     20       7.2079      0.00000
     21       8.1017      0.00000
     22       8.6190      0.00000
     23       8.8608      0.00000
     24       9.7767      0.00000

 k-point    11 :       0.2632    0.0000    0.0000
  band No.  band energies     occupation 
      1     -61.5515      2.00000
      2     -35.7326      2.00000
      3     -35.6965      2.00000
      4     -35.5760      2.00000
      5     -13.9150      2.00000
      6     -13.1438      2.00000
      7      -5.7201      2.00000
      8      -4.5739      2.00000
      9      -4.3928      2.00000
     10      -3.2722      2.00000
     11      -2.4464      2.00000
     12      -2.1051      2.00000
     13      -1.5116      2.00000
     14       1.4579      0.00000
     15       1.5932      0.00000
     16       2.2543      0.00000
     17       3.1068      0.00000
     18       5.8394      0.00000
     19       6.3116      0.00000
     20       7.3404      0.00000
     21       8.0615      0.00000
     22       8.3683      0.00000
     23       8.9242      0.00000
     24       9.8942      0.00000

 k-point    12 :       0.2895    0.0000    0.0000
  band No.  band energies     occupation 
      1     -61.5485      2.00000
      2     -35.7624      2.00000
      3     -35.6902      2.00000
      4     -35.5830      2.00000
      5     -13.7619      2.00000
      6     -13.0825      2.00000
      7      -5.7765      2.00000
      8      -4.6100      2.00000
      9      -4.5899      2.00000
     10      -3.3928      2.00000
     11      -2.3099      2.00000
     12      -2.2039      2.00000
     13      -1.6163      2.00000
     14       1.4996      0.00000
     15       1.5388      0.00000
     16       2.4114      0.00000
     17       3.2144      0.00000
     18       6.0610      0.00000
     19       6.5198      0.00000
     20       7.4274      0.00000
     21       7.8878      0.00000
     22       8.1500      0.00000
     23       9.0614      0.00000
     24       9.9847      0.00000

 k-point    13 :       0.3158    0.0000    0.0000
  band No.  band energies     occupation 
      1     -61.5457      2.00000
      2     -35.7912      2.00000
      3     -35.6846      2.00000
      4     -35.5900      2.00000
      5     -13.6089      2.00000
      6     -13.0218      2.00000
      7      -5.8761      2.00000
      8      -4.7784      2.00000
      9      -4.6223      2.00000
     10      -3.5036      2.00000
     11      -2.2964      2.00000
     12      -2.1799      2.00000
     13      -1.6792      2.00000
     14       1.4996      0.00000
     15       1.5608      0.00000
     16       2.5687      0.00000
     17       3.3058      0.00000
     18       6.2811      0.00000
     19       6.7178      0.00000
     20       7.3353      0.00000
     21       7.8186      0.00000
     22       7.9894      0.00000
     23       9.2129      0.00000
     24      10.0196      0.00000

 k-point    14 :       0.3421    0.0000    0.0000
  band No.  band energies     occupation 
      1     -61.5431      2.00000
      2     -35.8177      2.00000
      3     -35.6796      2.00000
      4     -35.5964      2.00000
      5     -13.4605      2.00000
      6     -12.9636      2.00000
      7      -5.9979      2.00000
      8      -4.9531      2.00000
      9      -4.6333      2.00000
     10      -3.6025      2.00000
     11      -2.3789      2.00000
     12      -2.0606      2.00000
     13      -1.6927      2.00000
     14       1.4768      0.00000
     15       1.6359      0.00000
     16       2.7170      0.00000
     17       3.3830      0.00000
     18       6.4688      0.00000
     19       6.8856      0.00000
     20       7.0726      0.00000
     21       7.9062      0.00000
     22       7.9279      0.00000
     23       9.3605      0.00000
     24       9.9887      0.00000

 k-point    15 :       0.3684    0.0000    0.0000
  band No.  band energies     occupation 
      1     -61.5407      2.00000
      2     -35.8412      2.00000
      3     -35.6748      2.00000
      4     -35.6020      2.00000
      5     -13.3216      2.00000
      6     -12.9098      2.00000
      7      -6.1242      2.00000
      8      -5.1097      2.00000
      9      -4.6547      2.00000
     10      -3.6876      2.00000
     11      -2.4485      2.00000
     12      -1.9556      2.00000
     13      -1.6592      2.00000
     14       1.4690      0.00000
     15       1.7192      0.00000
     16       2.8489      0.00000
     17       3.4466      0.00000
     18       6.4690      0.00000
     19       6.9404      0.00000
     20       7.0066      0.00000
     21       7.9148      0.00000
     22       8.1055      0.00000
     23       9.4874      0.00000
     24       9.9096      0.00000

 k-point    16 :       0.3947    0.0000    0.0000
  band No.  band energies     occupation 
      1     -61.5385      2.00000
      2     -35.8610      2.00000
      3     -35.6704      2.00000
      4     -35.6065      2.00000
      5     -13.1975      2.00000
      6     -12.8622      2.00000
      7      -6.2429      2.00000
      8      -5.2445      2.00000
      9      -4.6876      2.00000
     10      -3.7582      2.00000
     11      -2.5046      2.00000
     12      -1.8676      2.00000
     13      -1.5914      2.00000
     14       1.4732      0.00000
     15       1.8053      0.00000
     16       2.9602      0.00000
     17       3.4970      0.00000
     18       6.2050      0.00000
     19       7.0641      0.00000
     20       7.0830      0.00000
     21       7.9974      0.00000
     22       8.3236      0.00000
     23       9.5627      0.00000
     24       9.8140      0.00000

 k-point    17 :       0.4211    0.0000    0.0000
  band No.  band energies     occupation 
      1     -61.5369      2.00000
      2     -35.8777      2.00000
      3     -35.6669      2.00000
      4     -35.6104      2.00000
      5     -13.0937      2.00000
      6     -12.8230      2.00000
      7      -6.3449      2.00000
      8      -5.3543      2.00000
      9      -4.7254      2.00000
     10      -3.8141      2.00000
     11      -2.5477      2.00000
     12      -1.7988      2.00000
     13      -1.5085      2.00000
     14       1.4842      0.00000
     15       1.8867      0.00000
     16       3.0445      0.00000
     17       3.5346      0.00000
     18       5.9121      0.00000
     19       7.1350      0.00000
     20       7.2314      0.00000
     21       8.1062      0.00000
     22       8.5674      0.00000
     23       9.5746      0.00000
     24       9.7317      0.00000

 k-point    18 :       0.4474    0.0000    0.0000
  band No.  band energies     occupation 
      1     -61.5357      2.00000
      2     -35.8895      2.00000
      3     -35.6648      2.00000
      4     -35.6133      2.00000
      5     -13.0151      2.00000
      6     -12.7936      2.00000
      7      -6.4227      2.00000
      8      -5.4351      2.00000
      9      -4.7599      2.00000
     10      -3.8546      2.00000
     11      -2.5782      2.00000
     12      -1.7495      2.00000
     13      -1.4306      2.00000
     14       1.4975      0.00000
     15       1.9559      0.00000
     16       3.1035      0.00000
     17       3.5602      0.00000
     18       5.6701      0.00000
     19       7.1786      0.00000
     20       7.3797      0.00000
     21       8.1977      0.00000
     22       8.7970      0.00000
     23       9.5773      0.00000
     24       9.6866      0.00000

 k-point    19 :       0.4737    0.0000    0.0000
  band No.  band energies     occupation 
      1     -61.5350      2.00000
      2     -35.8971      2.00000
      3     -35.6632      2.00000
      4     -35.6152      2.00000
      5     -12.9660      2.00000
      6     -12.7754      2.00000
      7      -6.4718      2.00000
      8      -5.4848      2.00000
      9      -4.7835      2.00000
     10      -3.8794      2.00000
     11      -2.5962      2.00000
     12      -1.7200      2.00000
     13      -1.3758      2.00000
     14       1.5073      0.00000
     15       2.0032      0.00000
     16       3.1376      0.00000
     17       3.5753      0.00000
     18       5.5105      0.00000
     19       7.2120      0.00000
     20       7.4831      0.00000
     21       8.2494      0.00000
     22       8.9365      0.00000
     23       9.6754      0.00000
     24       9.6770      0.00000

 k-point    20 :       0.5000    0.0000    0.0000
  band No.  band energies     occupation 
      1     -61.5346      2.00000
      2     -35.8991      2.00000
      3     -35.6626      2.00000
      4     -35.6154      2.00000
      5     -12.9493      2.00000
      6     -12.7692      2.00000
      7      -6.4880      2.00000
      8      -5.5014      2.00000
      9      -4.7916      2.00000
     10      -3.8875      2.00000
     11      -2.6018      2.00000
     12      -1.7092      2.00000
     13      -1.3555      2.00000
     14       1.5113      0.00000
     15       2.0206      0.00000
     16       3.1499      0.00000
     17       3.5805      0.00000
     18       5.4560      0.00000
     19       7.2254      0.00000
     20       7.5229      0.00000
     21       8.2655      0.00000
     22       8.9721      0.00000
     23       9.6792      0.00000
     24       9.7996      0.00000

 k-point    21 :       0.5000    0.0000    0.0000
  band No.  band energies     occupation 
      1     -61.5346      2.00000
      2     -35.8991      2.00000
      3     -35.6626      2.00000
      4     -35.6154      2.00000
      5     -12.9493      2.00000
      6     -12.7692      2.00000
      7      -6.4880      2.00000
      8      -5.5014      2.00000
      9      -4.7916      2.00000
     10      -3.8875      2.00000
     11      -2.6018      2.00000
     12      -1.7092      2.00000
     13      -1.3555      2.00000
     14       1.5113      0.00000
     15       2.0206      0.00000
     16       3.1499      0.00000
     17       3.5805      0.00000
     18       5.4560      0.00000
     19       7.2254      0.00000
     20       7.5229      0.00000
     21       8.2655      0.00000
     22       8.9721      0.00000
     23       9.6792      0.00000
     24       9.7996      0.00000

 k-point    22 :       0.4912    0.0175    0.0000
  band No.  band energies     occupation 
      1     -61.5346      2.00000
      2     -35.8987      2.00000
      3     -35.6625      2.00000
      4     -35.6165      2.00000
      5     -12.9478      2.00000
      6     -12.7682      2.00000
      7      -6.4834      2.00000
      8      -5.5051      2.00000
      9      -4.7902      2.00000
     10      -3.8884      2.00000
     11      -2.6008      2.00000
     12      -1.7440      2.00000
     13      -1.3379      2.00000
     14       1.5130      0.00000
     15       2.0221      0.00000
     16       3.1561      0.00000
     17       3.5663      0.00000
     18       5.4609      0.00000
     19       7.2491      0.00000
     20       7.5371      0.00000
     21       8.2680      0.00000
     22       8.9771      0.00000
     23       9.6825      0.00000
     24       9.8021      0.00000

 k-point    23 :       0.4825    0.0351    0.0000
  band No.  band energies     occupation 
      1     -61.5345      2.00000
      2     -35.8977      2.00000
      3     -35.6621      2.00000
      4     -35.6185      2.00000
      5     -12.9432      2.00000
      6     -12.7654      2.00000
      7      -6.4698      2.00000
      8      -5.5160      2.00000
      9      -4.7852      2.00000
     10      -3.8906      2.00000
     11      -2.5977      2.00000
     12      -1.8301      2.00000
     13      -1.2982      2.00000
     14       1.5177      0.00000
     15       2.0272      0.00000
     16       3.1743      0.00000
     17       3.5261      0.00000
     18       5.4776      0.00000
     19       7.3190      0.00000
     20       7.5804      0.00000
     21       8.2754      0.00000
     22       8.9962      0.00000
     23       9.6926      0.00000
     24       9.8086      0.00000

 k-point    24 :       0.4737    0.0526    0.0000
  band No.  band energies     occupation 
      1     -61.5343      2.00000
      2     -35.8961      2.00000
      3     -35.6618      2.00000
      4     -35.6215      2.00000
      5     -12.9358      2.00000
      6     -12.7608      2.00000
      7      -6.4474      2.00000
      8      -5.5341      2.00000
      9      -4.7773      2.00000
     10      -3.8932      2.00000
     11      -2.5937      2.00000
     12      -1.9489      2.00000
     13      -1.2541      2.00000
     14       1.5236      0.00000
     15       2.0368      0.00000
     16       3.2017      0.00000
     17       3.4650      0.00000
     18       5.5052      0.00000
     19       7.4320      0.00000
     20       7.6512      0.00000
     21       8.2876      0.00000
     22       9.0281      0.00000
     23       9.7091      0.00000
     24       9.8137      0.00000

 k-point    25 :       0.4649    0.0702    0.0000
  band No.  band energies     occupation 
      1     -61.5342      2.00000
      2     -35.8937      2.00000
      3     -35.6616      2.00000
      4     -35.6268      2.00000
      5     -12.9255      2.00000
      6     -12.7544      2.00000
      7      -6.4160      2.00000
      8      -5.5592      2.00000
      9      -4.7669      2.00000
     10      -3.8965      2.00000
     11      -2.5893      2.00000
     12      -2.0913      2.00000
     13      -1.2139      2.00000
     14       1.5267      0.00000
     15       2.0530      0.00000
     16       3.2295      0.00000
     17       3.3959      0.00000
     18       5.5409      0.00000
     19       7.5797      0.00000
     20       7.7469      0.00000
     21       8.3047      0.00000
     22       9.0671      0.00000
     23       9.7319      0.00000
     24       9.7962      0.00000

 k-point    26 :       0.4561    0.0877    0.0000
  band No.  band energies     occupation 
      1     -61.5339      2.00000
      2     -35.8905      2.00000
      3     -35.6608      2.00000
      4     -35.6326      2.00000
      5     -12.9126      2.00000
      6     -12.7464      2.00000
      7      -6.3758      2.00000
      8      -5.5909      2.00000
      9      -4.7536      2.00000
     10      -3.8976      2.00000
     11      -2.5853      2.00000
     12      -2.2495      2.00000
     13      -1.1784      2.00000
     14       1.5245      0.00000
     15       2.0780      0.00000
     16       3.2166      0.00000
     17       3.3673      0.00000
     18       5.5852      0.00000
     19       7.7640      0.00000
     20       7.8657      0.00000
     21       8.3281      0.00000
     22       9.1063      0.00000
     23       9.7204      0.00000
     24       9.7611      0.00000

 k-point    27 :       0.4474    0.1053    0.0000
  band No.  band energies     occupation 
      1     -61.5337      2.00000
      2     -35.8871      2.00000
      3     -35.6604      2.00000
      4     -35.6400      2.00000
      5     -12.8974      2.00000
      6     -12.7371      2.00000
      7      -6.3274      2.00000
      8      -5.6287      2.00000
      9      -4.7382      2.00000
     10      -3.8959      2.00000
     11      -2.5844      2.00000
     12      -2.4210      2.00000
     13      -1.1476      2.00000
     14       1.5133      0.00000
     15       2.1130      0.00000
     16       3.1364      0.00000
     17       3.4065      0.00000
     18       5.6353      0.00000
     19       7.9689      0.00000
     20       8.0008      0.00000
     21       8.3557      0.00000
     22       9.1170      0.00000
     23       9.6237      0.00000
     24       9.7964      0.00000

 k-point    28 :       0.4386    0.1228    0.0000
  band No.  band energies     occupation 
      1     -61.5333      2.00000
      2     -35.8827      2.00000
      3     -35.6598      2.00000
      4     -35.6481      2.00000
      5     -12.8801      2.00000
      6     -12.7264      2.00000
      7      -6.2708      2.00000
      8      -5.6715      2.00000
      9      -4.7210      2.00000
     10      -3.8900      2.00000
     11      -2.6025      2.00000
     12      -2.5869      2.00000
     13      -1.1192      2.00000
     14       1.4925      0.00000
     15       2.1583      0.00000
     16       3.0353      0.00000
     17       3.4716      0.00000
     18       5.6922      0.00000
     19       8.1463      0.00000
     20       8.1945      0.00000
     21       8.3936      0.00000
     22       9.0501      0.00000
     23       9.5959      0.00000
     24       9.8377      0.00000

 k-point    29 :       0.4298    0.1404    0.0000
  band No.  band energies     occupation 
      1     -61.5329      2.00000
      2     -35.8778      2.00000
      3     -35.6590      2.00000
      4     -35.6570      2.00000
      5     -12.8610      2.00000
      6     -12.7148      2.00000
      7      -6.2064      2.00000
      8      -5.7183      2.00000
      9      -4.7025      2.00000
     10      -3.8794      2.00000
     11      -2.7911      2.00000
     12      -2.5938      2.00000
     13      -1.0915      2.00000
     14       1.4615      0.00000
     15       2.2132      0.00000
     16       2.9315      0.00000
     17       3.5464      0.00000
     18       5.7548      0.00000
     19       8.2911      0.00000
     20       8.3820      0.00000
     21       8.4877      0.00000
     22       8.9072      0.00000
     23       9.6643      0.00000
     24       9.8849      0.00000

 k-point    30 :       0.4211    0.1579    0.0000
  band No.  band energies     occupation 
      1     -61.5325      2.00000
      2     -35.8720      2.00000
      3     -35.6673      2.00000
      4     -35.6583      2.00000
      5     -12.8407      2.00000
      6     -12.7025      2.00000
      7      -6.1345      2.00000
      8      -5.7681      2.00000
      9      -4.6837      2.00000
     10      -3.8642      2.00000
     11      -2.9841      2.00000
     12      -2.6059      2.00000
     13      -1.0635      2.00000
     14       1.4207      0.00000
     15       2.2758      0.00000
     16       2.8308      0.00000
     17       3.6255      0.00000
     18       5.8220      0.00000
     19       8.3973      0.00000
     20       8.4473      0.00000
     21       8.7181      0.00000
     22       8.7600      0.00000
     23       9.7832      0.00000
     24       9.9376      0.00000

 k-point    31 :       0.4123    0.1754    0.0000
  band No.  band energies     occupation 
      1     -61.5321      2.00000
      2     -35.8660      2.00000
      3     -35.6781      2.00000
      4     -35.6575      2.00000
      5     -12.8195      2.00000
      6     -12.6897      2.00000
      7      -6.0562      2.00000
      8      -5.8194      2.00000
      9      -4.6649      2.00000
     10      -3.8437      2.00000
     11      -3.1791      2.00000
     12      -2.6239      2.00000
     13      -1.0338      2.00000
     14       1.3713      0.00000
     15       2.3436      0.00000
     16       2.7364      0.00000
     17       3.7057      0.00000
     18       5.8931      0.00000
     19       8.3476      0.00000
     20       8.4966      0.00000
     21       8.7528      0.00000
     22       8.9776      0.00000
     23       9.9288      0.00000
     24       9.9958      0.00000

 k-point    32 :       0.4035    0.1930    0.0000
  band No.  band energies     occupation 
      1     -61.5317      2.00000
      2     -35.8595      2.00000
      3     -35.6894      2.00000
      4     -35.6568      2.00000
      5     -12.7980      2.00000
      6     -12.6769      2.00000
      7      -5.9717      2.00000
      8      -5.8708      2.00000
      9      -4.6471      2.00000
     10      -3.8182      2.00000
     11      -3.3729      2.00000
     12      -2.6476      2.00000
     13      -1.0012      2.00000
     14       1.3152      0.00000
     15       2.4146      0.00000
     16       2.6506      0.00000
     17       3.7847      0.00000
     18       5.9683      0.00000
     19       8.1666      0.00000
     20       8.5476      0.00000
     21       8.8692      0.00000
     22       9.2443      0.00000
     23      10.0595      0.00000
     24      10.0829      0.00000

 k-point    33 :       0.3947    0.2105    0.0000
  band No.  band energies     occupation 
      1     -61.5314      2.00000
      2     -35.8526      2.00000
      3     -35.7015      2.00000
      4     -35.6560      2.00000
      5     -12.7766      2.00000
      6     -12.6642      2.00000
      7      -5.9207      2.00000
      8      -5.8817      2.00000
      9      -4.6324      2.00000
     10      -3.7884      2.00000
     11      -3.5632      2.00000
     12      -2.6768      2.00000
     13      -0.9655      2.00000
     14       1.2543      0.00000
     15       2.4864      0.00000
     16       2.5749      0.00000
     17       3.8598      0.00000
     18       6.0467      0.00000
     19       7.9586      0.00000
     20       8.6016      0.00000
     21       9.0097      0.00000
     22       9.5114      0.00000
     23      10.1293      0.00000
     24      10.2312      0.00000

 k-point    34 :       0.3860    0.2281    0.0000
  band No.  band energies     occupation 
      1     -61.5310      2.00000
      2     -35.8453      2.00000
      3     -35.7135      2.00000
      4     -35.6549      2.00000
      5     -12.7560      2.00000
      6     -12.6521      2.00000
      7      -5.9678      2.00000
      8      -5.7873      2.00000
      9      -4.6211      2.00000
     10      -3.7555      2.00000
     11      -3.7443      2.00000
     12      -2.7102      2.00000
     13      -0.9268      2.00000
     14       1.1909      0.00000
     15       2.5101      0.00000
     16       2.5570      0.00000
     17       3.9290      0.00000
     18       6.1287      0.00000
     19       7.7506      0.00000
     20       8.6587      0.00000
     21       9.1527      0.00000
     22       9.7714      0.00000
     23      10.2076      0.00000
     24      10.3682      0.00000

 k-point    35 :       0.3772    0.2456    0.0000
  band No.  band energies     occupation 
      1     -61.5307      2.00000
      2     -35.8377      2.00000
      3     -35.7254      2.00000
      4     -35.6544      2.00000
      5     -12.7367      2.00000
      6     -12.6410      2.00000
      7      -6.0110      2.00000
      8      -5.6896      2.00000
      9      -4.6177      2.00000
     10      -3.9119      2.00000
     11      -3.7205      2.00000
     12      -2.7473      2.00000
     13      -0.8863      2.00000
     14       1.1274      0.00000
     15       2.4566      0.00000
     16       2.6238      0.00000
     17       3.9899      0.00000
     18       6.2126      0.00000
     19       7.5480      0.00000
     20       8.7162      0.00000
     21       9.2913      0.00000
     22      10.0096      0.00000
     23      10.3034      0.00000
     24      10.4943      0.00000

 k-point    36 :       0.3684    0.2632    0.0000
  band No.  band energies     occupation 
      1     -61.5305      2.00000
      2     -35.8302      2.00000
      3     -35.7370      2.00000
      4     -35.6540      2.00000
      5     -12.7195      2.00000
      6     -12.6312      2.00000
      7      -6.0486      2.00000
      8      -5.5909      2.00000
      9      -4.6268      2.00000
     10      -4.0577      2.00000
     11      -3.6851      2.00000
     12      -2.7858      2.00000
     13      -0.8460      2.00000
     14       1.0670      0.00000
     15       2.4144      0.00000
     16       2.6843      0.00000
     17       4.0410      0.00000
     18       6.2960      0.00000
     19       7.3600      0.00000
     20       8.7737      0.00000
     21       9.4221      0.00000
     22      10.1926      0.00000
     23      10.4409      0.00000
     24      10.6107      0.00000

 k-point    37 :       0.3596    0.2807    0.0000
  band No.  band energies     occupation 
      1     -61.5303      2.00000
      2     -35.8226      2.00000
      3     -35.7474      2.00000
      4     -35.6534      2.00000
      5     -12.7049      2.00000
      6     -12.6230      2.00000
      7      -6.0792      2.00000
      8      -5.4939      2.00000
      9      -4.6555      2.00000
     10      -4.1704      2.00000
     11      -3.6511      2.00000
     12      -2.8225      2.00000
     13      -0.8081      2.00000
     14       1.0134      0.00000
     15       2.3842      0.00000
     16       2.7363      0.00000
     17       4.0818      0.00000
     18       6.3795      0.00000
     19       7.1927      0.00000
     20       8.8279      0.00000
     21       9.5416      0.00000
     22      10.3051      0.00000
     23      10.6282      0.00000
     24      10.7152      0.00000

 k-point    38 :       0.3509    0.2982    0.0000
  band No.  band energies     occupation 
      1     -61.5302      2.00000
[...]
      2     -35.7596      2.00000
      3     -35.6868      2.00000
      4     -35.6081      2.00000
      5     -13.6692      2.00000
      6     -13.0402      2.00000
      7      -5.6669      2.00000
      8      -4.5376      2.00000
      9      -4.5269      2.00000
     10      -3.9601      2.00000
     11      -2.7397      2.00000
     12      -1.8172      2.00000
     13      -1.5321      2.00000
     14       1.2132      0.00000
     15       1.7606      0.00000
     16       2.0021      0.00000
     17       3.5120      0.00000
     18       6.2743      0.00000
     19       6.7065      0.00000
     20       7.9552      0.00000
     21       8.1324      0.00000
     22       8.8706      0.00000
     23       9.4956      0.00000
     24       9.9195      0.00000

 k-point    51 :       0.1579    0.1579    0.0000
  band No.  band energies     occupation 
      1     -61.5502      2.00000
      2     -35.7315      2.00000
      3     -35.6939      2.00000
      4     -35.5934      2.00000
      5     -13.8506      2.00000
      6     -13.1149      2.00000
      7      -5.6347      2.00000
      8      -4.5521      2.00000
      9      -4.2615      2.00000
     10      -3.8304      2.00000
     11      -2.6730      2.00000
     12      -1.7385      2.00000
     13      -1.4833      2.00000
     14       1.2246      0.00000
     15       1.7320      0.00000
     16       1.9012      0.00000
     17       3.3666      0.00000
     18       5.9822      0.00000
     19       6.4298      0.00000
     20       7.6945      0.00000
     21       8.3525      0.00000
     22       8.9691      0.00000
     23       9.1678      0.00000
     24       9.8086      0.00000

 k-point    52 :       0.1404    0.1404    0.0000
  band No.  band energies     occupation 
      1     -61.5538      2.00000
      2     -35.7010      2.00000
      3     -35.7009      2.00000
      4     -35.5802      2.00000
      5     -14.0273      2.00000
      6     -13.1874      2.00000
      7      -5.6603      2.00000
      8      -4.4943      2.00000
      9      -4.0415      2.00000
     10      -3.6204      2.00000
     11      -2.6933      2.00000
     12      -1.6856      2.00000
     13      -1.3736      2.00000
     14       1.2860      0.00000
     15       1.7261      0.00000
     16       1.8187      0.00000
     17       3.1925      0.00000
     18       5.7103      0.00000
     19       6.1713      0.00000
     20       7.4424      0.00000
     21       8.3778      0.00000
     22       8.9258      0.00000
     23       9.1079      0.00000
     24       9.7125      0.00000

 k-point    53 :       0.1228    0.1228    0.0000
  band No.  band energies     occupation 
      1     -61.5573      2.00000
      2     -35.7081      2.00000
      3     -35.6690      2.00000
      4     -35.5680      2.00000
      5     -14.1943      2.00000
      6     -13.2560      2.00000
      7      -5.7421      2.00000
      8      -4.3645      2.00000
      9      -3.8536      2.00000
     10      -3.3559      2.00000
     11      -2.7756      2.00000
     12      -1.6593      2.00000
     13      -1.2291      2.00000
     14       1.3798      0.00000
     15       1.7574      0.00000
     16       1.7632      0.00000
     17       2.9987      0.00000
     18       5.4627      0.00000
     19       5.9345      0.00000
     20       7.1984      0.00000
     21       8.0404      0.00000
     22       8.9959      0.00000
     23       9.2198      0.00000
     24       9.6731      0.00000

 k-point    54 :       0.1053    0.1053    0.0000
  band No.  band energies     occupation 
      1     -61.5607      2.00000
      2     -35.7147      2.00000
      3     -35.6377      2.00000
      4     -35.5579      2.00000
      5     -14.3475      2.00000
      6     -13.3188      2.00000
      7      -5.8569      2.00000
      8      -4.1866      2.00000
      9      -3.6680      2.00000
     10      -3.0836      2.00000
     11      -2.8886      2.00000
     12      -1.6622      2.00000
     13      -1.0822      2.00000
     14       1.4949      0.00000
     15       1.7403      0.00000
     16       1.8293      0.00000
     17       2.7952      0.00000
     18       5.2417      0.00000
     19       5.7227      0.00000
     20       6.9509      0.00000
     21       7.6138      0.00000
     22       9.1573      0.00000
     23       9.2042      0.00000
     24       9.6935      0.00000

 k-point    55 :       0.0877    0.0877    0.0000
  band No.  band energies     occupation 
      1     -61.5636      2.00000
      2     -35.7207      2.00000
      3     -35.6073      2.00000
      4     -35.5485      2.00000
      5     -14.4833      2.00000
      6     -13.3744      2.00000
      7      -5.9811      2.00000
      8      -3.9859      2.00000
      9      -3.4702      2.00000
     10      -3.0073      2.00000
     11      -2.8300      2.00000
     12      -1.6945      2.00000
     13      -0.9559      2.00000
     14       1.6320      0.00000
     15       1.7547      0.00000
     16       1.9308      0.00000
     17       2.5959      0.00000
     18       5.0483      0.00000
     19       5.5389      0.00000
     20       6.6720      0.00000
     21       7.2405      0.00000
     22       9.1104      0.00000
     23       9.3436      0.00000
     24       9.5633      0.00000

 k-point    56 :       0.0702    0.0702    0.0000
  band No.  band energies     occupation 
      1     -61.5664      2.00000
      2     -35.7261      2.00000
      3     -35.5815      2.00000
      4     -35.5413      2.00000
      5     -14.5986      2.00000
      6     -13.4216      2.00000
      7      -6.0988      2.00000
      8      -3.7871      2.00000
      9      -3.2607      2.00000
     10      -3.1182      2.00000
     11      -2.6142      2.00000
     12      -1.7595      2.00000
     13      -0.8609      2.00000
     14       1.7902      0.00000
     15       1.8016      0.00000
     16       2.0387      0.00000
     17       2.4111      0.00000
     18       4.8825      0.00000
     19       5.3852      0.00000
     20       6.3451      0.00000
     21       6.9744      0.00000
     22       9.0015      0.00000
     23       9.2585      0.00000
     24       9.5344      0.00000

 k-point    57 :       0.0526    0.0526    0.0000
  band No.  band energies     occupation 
      1     -61.5686      2.00000
      2     -35.7307      2.00000
      3     -35.5594      2.00000
      4     -35.5358      2.00000
      5     -14.6908      2.00000
      6     -13.4594      2.00000
      7      -6.1992      2.00000
      8      -3.6068      2.00000
      9      -3.2108      2.00000
     10      -3.0419      2.00000
     11      -2.4448      2.00000
     12      -1.8571      2.00000
     13      -0.7969      2.00000
     14       1.8717      0.00000
     15       1.9611      0.00000
     16       2.1365      0.00000
     17       2.2533      0.00000
     18       4.7446      0.00000
     19       5.2635      0.00000
     20       6.0152      0.00000
     21       6.8012      0.00000
     22       8.8694      0.00000
     23       8.9571      0.00000
     24       9.7408      0.00000

 k-point    58 :       0.0351    0.0351    0.0000
  band No.  band energies     occupation 
      1     -61.5702      2.00000
      2     -35.7339      2.00000
      3     -35.5427      2.00000
      4     -35.5318      2.00000
      5     -14.7581      2.00000
      6     -13.4870      2.00000
      7      -6.2752      2.00000
      8      -3.4627      2.00000
      9      -3.2803      2.00000
     10      -2.8218      2.00000
     11      -2.3247      2.00000
     12      -1.9849      2.00000
     13      -0.7582      2.00000
     14       1.9487      0.00000
     15       2.1189      0.00000
     16       2.1331      0.00000
     17       2.2127      0.00000
     18       4.6362      0.00000
     19       5.1753      0.00000
     20       5.7412      0.00000
     21       6.6894      0.00000
     22       8.6121      0.00000
     23       8.8528      0.00000
     24       9.9500      0.00000

 k-point    59 :       0.0175    0.0175    0.0000
  band No.  band energies     occupation 
      1     -61.5711      2.00000
      2     -35.7359      2.00000
      3     -35.5319      2.00000
      4     -35.5287      2.00000
      5     -14.7990      2.00000
      6     -13.5038      2.00000
      7      -6.3224      2.00000
      8      -3.3696      2.00000
      9      -3.3227      2.00000
     10      -2.6169      2.00000
     11      -2.2528      2.00000
     12      -2.1316      2.00000
     13      -0.7383      2.00000
     14       2.0099      0.00000
     15       2.0591      0.00000
     16       2.2344      0.00000
     17       2.2606      0.00000
     18       4.5636      0.00000
     19       5.1218      0.00000
     20       5.5621      0.00000
     21       6.6245      0.00000
     22       8.4238      0.00000
     23       8.8055      0.00000
     24      10.1923      0.00000

 k-point    60 :       0.0000    0.0000    0.0000
  band No.  band energies     occupation 
      1     -61.5715      2.00000
      2     -35.7364      2.00000
      3     -35.5282      2.00000
      4     -35.5282      2.00000
      5     -14.8128      2.00000
      6     -13.5094      2.00000
      7      -6.3384      2.00000
      8      -3.3373      2.00000
      9      -3.3373      2.00000
     10      -2.4989      2.00000
     11      -2.2294      2.00000
     12      -2.2294      2.00000
     13      -0.7326      2.00000
     14       2.0339      0.00000
     15       2.0339      0.00000
     16       2.2758      0.00000
     17       2.2758      0.00000
     18       4.5374      0.00000
     19       5.1038      0.00000
     20       5.4998      0.00000
     21       6.6029      0.00000
     22       8.3570      0.00000
     23       8.7900      0.00000
     24      10.2305      0.00000


--------------------------------------------------------------------------------------------------------


 soft charge-density along one line, spin component           1
         0         1         2         3         4         5         6         7         8         9
 total charge-density along one line
 
 pseudopotential strength for first ion, spin component:           1
 -4.615  12.862   0.000   0.000  -0.000  -0.000  -0.000   0.000
 12.862   3.191  -0.000  -0.000   0.000   0.000   0.000  -0.000
  0.000  -0.000 -19.718  -0.000  -0.000  10.703   0.000   0.000
  0.000  -0.000  -0.000 -19.712  -0.000   0.000  10.696   0.000
 -0.000   0.000  -0.000  -0.000 -19.718   0.000   0.000  10.703
 -0.000   0.000  10.703   0.000   0.000   4.737  -0.000  -0.000
 -0.000   0.000   0.000  10.696   0.000  -0.000   4.738  -0.000
  0.000  -0.000   0.000   0.000  10.703  -0.000  -0.000   4.737
 -0.000   0.000  -0.000  -0.000  -0.001   0.000   0.000   0.000
 -0.000   0.000   0.000   0.000  -0.000  -0.000  -0.000   0.000
  0.005  -0.003  -0.000   0.000   0.000   0.000  -0.000  -0.000
 -0.000   0.000  -0.000  -0.000   0.000   0.000   0.000  -0.000
  0.000  -0.000  -0.001  -0.000  -0.000   0.001   0.000   0.000
 -0.000   0.000  -0.000  -0.000  -0.001   0.000   0.000   0.001
 -0.000   0.000   0.000   0.000  -0.000  -0.000  -0.000   0.000
  0.005  -0.003  -0.000   0.000   0.000   0.000  -0.000  -0.000
 -0.000   0.000  -0.000  -0.000   0.000   0.000   0.000  -0.000
  0.000  -0.000  -0.001  -0.000  -0.000   0.001   0.000   0.000
 total augmentation occupancy for first ion, spin component:           1
  2.000   0.000   0.000   0.000   0.000   0.000   0.000   0.000   0.000   0.000   0.000   0.000   0.000   0.000   0.000   0.000
  0.000   1.000   0.000   0.000   0.000   0.000   0.000   0.000   0.000   0.000   0.000   0.000   0.000   0.000   0.000   0.000
  0.000   0.000   2.000   0.000   0.000   0.000   0.000   0.000   0.000   0.000   0.000   0.000   0.000   0.000   0.000   0.000
  0.000   0.000   0.000   2.000   0.000   0.000   0.000   0.000   0.000   0.000   0.000   0.000   0.000   0.000   0.000   0.000
  0.000   0.000   0.000   0.000   2.000   0.000   0.000   0.000   0.000   0.000   0.000   0.000   0.000   0.000   0.000   0.000
  0.000   0.000   0.000   0.000   0.000   0.000   0.000   0.000   0.000   0.000   0.000   0.000   0.000   0.000   0.000   0.000
  0.000   0.000   0.000   0.000   0.000   0.000   0.000   0.000   0.000   0.000   0.000   0.000   0.000   0.000   0.000   0.000
  0.000   0.000   0.000   0.000   0.000   0.000   0.000   0.000   0.000   0.000   0.000   0.000   0.000   0.000   0.000   0.000
  0.000   0.000   0.000   0.000   0.000   0.000   0.000   0.000   1.000   0.000   0.000   0.000   0.000   0.000   0.000   0.000
  0.000   0.000   0.000   0.000   0.000   0.000   0.000   0.000   0.000   1.000   0.000   0.000   0.000   0.000   0.000   0.000
  0.000   0.000   0.000   0.000   0.000   0.000   0.000   0.000   0.000   0.000   1.000   0.000   0.000   0.000   0.000   0.000
  0.000   0.000   0.000   0.000   0.000   0.000   0.000   0.000   0.000   0.000   0.000   1.000   0.000   0.000   0.000   0.000
  0.000   0.000   0.000   0.000   0.000   0.000   0.000   0.000   0.000   0.000   0.000   0.000   1.000   0.000   0.000   0.000
  0.000   0.000   0.000   0.000   0.000   0.000   0.000   0.000   0.000   0.000   0.000   0.000   0.000   0.000   0.000   0.000
  0.000   0.000   0.000   0.000   0.000   0.000   0.000   0.000   0.000   0.000   0.000   0.000   0.000   0.000   0.000   0.000
  0.000   0.000   0.000   0.000   0.000   0.000   0.000   0.000   0.000   0.000   0.000   0.000   0.000   0.000   0.000   0.000
  0.000   0.000   0.000   0.000   0.000   0.000   0.000   0.000   0.000   0.000   0.000   0.000   0.000   0.000   0.000   0.000
  0.000   0.000   0.000   0.000   0.000   0.000   0.000   0.000   0.000   0.000   0.000   0.000   0.000   0.000   0.000   0.000


------------------------ aborting loop because EDIFF is reached ----------------------------------------


 


 total charge     
 
# of ion       s       p       d       tot
------------------------------------------
    1        2.282   6.212   4.049  12.543
    2        1.356   2.328   0.000   3.685
    3        1.356   2.328   0.000   3.685
--------------------------------------------------
tot          4.994  10.869   4.049  19.912
 
    CHARGE:  cpu time    0.0457: real time    0.0457
    FORLOC:  cpu time    0.0006: real time    0.0006
    FORNL :  cpu time    0.1050: real time    0.1051
    STRESS:  cpu time    0.7949: real time    0.7958
    FORCOR:  cpu time    0.0086: real time    0.0086
    FORHAR:  cpu time    0.0021: real time    0.0021
    OFIELD:  cpu time    0.0000: real time    0.0000

  FORCE on cell =-STRESS in cart. coord.  units (eV):
  Direction    XX          YY          ZZ          XY          YZ          ZX
  --------------------------------------------------------------------------------------
  Alpha Z    35.92460    35.92460    35.92460
  Ewald    4160.38303  4160.38305 -5566.17682     0.00001     0.00000    -0.00000
  Hartree  4663.14272  4663.14272 -4414.29808     0.00000    -0.00000    -0.00000
  E(xc)    -109.61765  -109.61766  -109.86770    -0.00000     0.00000     0.00000
  Local   -9279.07063 -9279.07083  9516.48536    -0.00017    -0.00002    -0.00001
  n-local   114.87583   116.25251   122.06330    -2.73613    -0.00000     0.00000
  augment     0.28621     0.28638    -1.38404     0.00015     0.00000     0.00000
  Kinetic   411.07556   416.35289   419.31578    -7.66865    -0.00000    -0.00000
  Fock        0.00000     0.00000     0.00000     0.00000     0.00000     0.00000
  -------------------------------------------------------------------------------------
  Total       0.32666     0.32666     2.06239     0.00000     0.00000    -0.00000
  in kB       3.97440     3.97440    25.09288     0.00000     0.00000    -0.00000
  external pressure =       11.01 kB  Pullay stress =        0.00 kB


 VOLUME and BASIS-vectors are now :
 -----------------------------------------------------------------------------
  energy-cutoff  :      258.69
  volume of cell :      131.68
      direct lattice vectors                 reciprocal lattice vectors
     3.183860469  0.000000000  0.000000000     0.314084116  0.181336549  0.000000000
    -1.591930234  2.757304048  0.000000000     0.000000000  0.362673098  0.000000000
     0.000000000  0.000000000 15.000000000     0.000000000  0.000000000  0.066666667

  length of vectors
     3.183860469  3.183860469 15.000000000     0.362673098  0.362673098  0.066666667


 FORCES acting on ions
    electron-ion (+dipol)            ewald-force                    non-local-force                 convergence-correction
 -----------------------------------------------------------------------------------------------
   -.849E-04 -.451E-04 0.256E-05   -.695E-05 0.401E-05 0.114E-12   0.243E-16 0.000E+00 0.000E+00   -.270E-02 0.164E-02 0.131E-07
   -.122E-05 -.331E-04 -.836E+03   0.348E-05 -.201E-05 0.838E+03   0.382E-16 0.104E-16 -.381E+01   0.182E-03 -.103E-03 0.202E+01
   0.647E-05 -.197E-04 0.836E+03   0.348E-05 -.201E-05 -.838E+03   0.278E-16 0.694E-17 0.381E+01   0.182E-03 -.103E-03 -.202E+01
 -----------------------------------------------------------------------------------------------
   -.796E-04 -.979E-04 0.224E-05   0.103E-13 0.547E-14 0.000E+00   0.902E-16 0.173E-16 0.000E+00   -.233E-02 0.144E-02 0.930E-08
 
 
 POSITION                                       TOTAL-FORCE (eV/Angst)
 -----------------------------------------------------------------------------------
      1.59193      0.91910      3.75000        -0.000000      0.000000     -0.000000
     -0.00000      1.83820      5.31228         0.000000      0.000000      0.128102
     -0.00000      1.83820      2.18772         0.000000     -0.000000     -0.128102
 -----------------------------------------------------------------------------------
    total drift:                               -0.002413      0.001340      0.000002


--------------------------------------------------------------------------------------------------------



  FREE ENERGIE OF THE ION-ELECTRON SYSTEM (eV)
  ---------------------------------------------------
  free  energy   TOTEN  =       -21.46912415 eV

  energy  without entropy=      -21.46912415  energy(sigma->0) =      -21.46912415
 


--------------------------------------------------------------------------------------------------------


    POTLOK:  cpu time    0.0193: real time    0.0193


--------------------------------------------------------------------------------------------------------


 writing wavefunctions
     LOOP+:  cpu time    8.9486: real time   24.6742
    4ORBIT:  cpu time    0.0000: real time    0.0000
 


 total charge     
 
# of ion       s       p       d       tot
------------------------------------------
    1        2.282   6.212   4.049  12.543
    2        1.356   2.328   0.000   3.685
    3        1.356   2.328   0.000   3.685
--------------------------------------------------
tot          4.994  10.869   4.049  19.912
 

 total amount of memory used by VASP MPI-rank0    56928. kBytes
=======================================================================

   base      :      30000. kBytes
   nonl-proj :      22041. kBytes
   fftplans  :       1286. kBytes
   grid      :       1044. kBytes
   one-center:         46. kBytes
   wavefun   :       2511. kBytes
 
  
  
 General timing and accounting informations for this job:
 ========================================================
  
                  Total CPU time used (sec):       10.561
                            User time (sec):       10.277
                          System time (sec):        0.284
                         Elapsed time (sec):       31.769
  
                   Maximum memory used (kb):      131964.
                   Average memory used (kb):           0.
  
                          Minor page faults:        20791
                          Major page faults:            0
                 Voluntary context switches:         1199
