PROCAR lm decomposed
# of k-points:   60         # of bands:   24         # of ions:    3

 k-point     1 :    0.00000000 0.00000000 0.00000000     weight = 0.01666667

band     1 # energy  -61.57147039 # occ.  2.00000000
 
ion      s     py     pz     px    dxy    dyz    dz2    dxz  x2-y2    tot
    1  0.995  0.000  0.000  0.000  0.000  0.000  0.000  0.000  0.000  0.995
    2  0.000  0.000  0.000  0.000  0.000  0.000  0.000  0.000  0.000  0.000
    3  0.000  0.000  0.000  0.000  0.000  0.000  0.000  0.000  0.000  0.000
tot    0.995  0.000  0.000  0.000  0.000  0.000  0.000  0.000  0.000  0.995
 
band     2 # energy  -35.73644564 # occ.  2.00000000
 
ion      s     py     pz     px    dxy    dyz    dz2    dxz  x2-y2    tot
    1  0.000  0.000  0.979  0.000  0.000  0.000  0.000  0.000  0.000  0.979
    2  0.002  0.000  0.001  0.000  0.000  0.000  0.000  0.000  0.000  0.002
    3  0.002  0.000  0.001  0.000  0.000  0.000  0.000  0.000  0.000  0.002
tot    0.003  0.000  0.980  0.000  0.000  0.000  0.000  0.000  0.000  0.983
 
band     3 # energy  -35.52821602 # occ.  2.00000000
 
ion      s     py     pz     px    dxy    dyz    dz2    dxz  x2-y2    tot
    1  0.000  0.248  0.000  0.746  0.000  0.000  0.000  0.000  0.000  0.994
    2  0.000  0.000  0.000  0.000  0.000  0.000  0.000  0.000  0.000  0.000
    3  0.000  0.000  0.000  0.000  0.000  0.000  0.000  0.000  0.000  0.000
tot    0.000  0.248  0.000  0.746  0.000  0.000  0.000  0.000  0.000  0.994
 
band     4 # energy  -35.52818513 # occ.  2.00000000
 
ion      s     py     pz     px    dxy    dyz    dz2    dxz  x2-y2    tot
    1  0.000  0.746  0.000  0.248  0.000  0.000  0.000  0.000  0.000  0.994
    2  0.000  0.000  0.000  0.000  0.000  0.000  0.000  0.000  0.000  0.000
    3  0.000  0.000  0.000  0.000  0.000  0.000  0.000  0.000  0.000  0.000
tot    0.000  0.746  0.000  0.248  0.000  0.000  0.000  0.000  0.000  0.994
 
band     5 # energy  -14.81276787 # occ.  2.00000000
 
ion      s     py     pz     px    dxy    dyz    dz2    dxz  x2-y2    tot
    1  0.081  0.000  0.000  0.000  0.000  0.000  0.000  0.000  0.000  0.081
    2  0.275  0.000  0.005  0.000  0.000  0.000  0.000  0.000  0.000  0.280
    3  0.275  0.000  0.005  0.000  0.000  0.000  0.000  0.000  0.000  0.280
tot    0.631  0.000  0.010  0.000  0.000  0.000  0.000  0.000  0.000  0.642
 
band     6 # energy  -13.50942379 # occ.  2.00000000
 
ion      s     py     pz     px    dxy    dyz    dz2    dxz  x2-y2    tot
    1  0.000  0.000  0.034  0.000  0.000  0.000  0.000  0.000  0.000  0.034
    2  0.314  0.000  0.000  0.000  0.000  0.000  0.000  0.000  0.000  0.314
    3  0.314  0.000  0.000  0.000  0.000  0.000  0.000  0.000  0.000  0.314
tot    0.627  0.000  0.034  0.000  0.000  0.000  0.000  0.000  0.000  0.661
 
band     7 # energy   -6.33840874 # occ.  2.00000000
 
ion      s     py     pz     px    dxy    dyz    dz2    dxz  x2-y2    tot
    1  0.095  0.000  0.000  0.000  0.000  0.000  0.175  0.000  0.000  0.270
    2  0.018  0.000  0.126  0.000  0.000  0.000  0.000  0.000  0.000  0.144
    3  0.018  0.000  0.126  0.000  0.000  0.000  0.000  0.000  0.000  0.144
tot    0.131  0.000  0.252  0.000  0.000  0.000  0.175  0.000  0.000  0.558
 
band     8 # energy   -3.33731826 # occ.  2.00000000
 
ion      s     py     pz     px    dxy    dyz    dz2    dxz  x2-y2    tot
    1  0.000  0.001  0.000  0.003  0.407  0.000  0.000  0.000  0.136  0.546
    2  0.000  0.029  0.000  0.086  0.000  0.000  0.000  0.000  0.000  0.115
    3  0.000  0.029  0.000  0.086  0.000  0.000  0.000  0.000  0.000  0.115
tot    0.000  0.059  0.000  0.176  0.407  0.000  0.000  0.000  0.136  0.777
 
band     9 # energy   -3.33730156 # occ.  2.00000000
 
ion      s     py     pz     px    dxy    dyz    dz2    dxz  x2-y2    tot
    1  0.000  0.003  0.000  0.001  0.136  0.000  0.000  0.000  0.407  0.546
    2  0.000  0.086  0.000  0.029  0.000  0.000  0.000  0.000  0.000  0.115
    3  0.000  0.086  0.000  0.029  0.000  0.000  0.000  0.000  0.000  0.115
tot    0.000  0.176  0.000  0.059  0.136  0.000  0.000  0.000  0.407  0.777
 
band    10 # energy   -2.49887458 # occ.  2.00000000
 
ion      s     py     pz     px    dxy    dyz    dz2    dxz  x2-y2    tot
    1  0.000  0.000  0.029  0.000  0.000  0.000  0.000  0.000  0.000  0.029
    2  0.000  0.000  0.249  0.000  0.000  0.000  0.000  0.000  0.000  0.249
    3  0.000  0.000  0.249  0.000  0.000  0.000  0.000  0.000  0.000  0.249
tot    0.001  0.000  0.527  0.000  0.000  0.000  0.000  0.000  0.000  0.527
 
band    11 # energy   -2.22939829 # occ.  2.00000000
 
ion      s     py     pz     px    dxy    dyz    dz2    dxz  x2-y2    tot
    1  0.000  0.000  0.000  0.000  0.000  0.375  0.000  0.122  0.000  0.497
    2  0.000  0.118  0.000  0.038  0.000  0.000  0.000  0.000  0.000  0.156
    3  0.000  0.118  0.000  0.038  0.000  0.000  0.000  0.000  0.000  0.156
tot    0.000  0.236  0.000  0.077  0.000  0.375  0.000  0.122  0.000  0.810
 
band    12 # energy   -2.22936589 # occ.  2.00000000
 
ion      s     py     pz     px    dxy    dyz    dz2    dxz  x2-y2    tot
    1  0.000  0.000  0.000  0.000  0.000  0.122  0.000  0.375  0.000  0.497
    2  0.000  0.038  0.000  0.118  0.000  0.000  0.000  0.000  0.000  0.156
    3  0.000  0.038  0.000  0.118  0.000  0.000  0.000  0.000  0.000  0.156
tot    0.000  0.077  0.000  0.236  0.000  0.122  0.000  0.375  0.000  0.810
 
band    13 # energy   -0.73255065 # occ.  2.00000000
 
ion      s     py     pz     px    dxy    dyz    dz2    dxz  x2-y2    tot
    1  0.011  0.000  0.000  0.000  0.000  0.000  0.568  0.000  0.000  0.579
    2  0.002  0.000  0.070  0.000  0.000  0.000  0.000  0.000  0.000  0.072
    3  0.002  0.000  0.070  0.000  0.000  0.000  0.000  0.000  0.000  0.072
tot    0.016  0.000  0.140  0.000  0.000  0.000  0.568  0.000  0.000  0.723
 
band    14 # energy    2.03391423 # occ.  0.00000000
 
ion      s     py     pz     px    dxy    dyz    dz2    dxz  x2-y2    tot
    1  0.000  0.000  0.000  0.000  0.000  0.088  0.000  0.269  0.000  0.357
    2  0.000  0.045  0.000  0.138  0.000  0.000  0.000  0.000  0.000  0.183
    3  0.000  0.045  0.000  0.138  0.000  0.000  0.000  0.000  0.000  0.183
tot    0.000  0.090  0.000  0.276  0.000  0.088  0.000  0.269  0.000  0.724
 
band    15 # energy    2.03394410 # occ.  0.00000000
 
ion      s     py     pz     px    dxy    dyz    dz2    dxz  x2-y2    tot
    1  0.000  0.000  0.000  0.000  0.000  0.269  0.000  0.088  0.000  0.357
    2  0.000  0.138  0.000  0.045  0.000  0.000  0.000  0.000  0.000  0.183
    3  0.000  0.138  0.000  0.045  0.000  0.000  0.000  0.000  0.000  0.183
tot    0.000  0.276  0.000  0.090  0.000  0.269  0.000  0.088  0.000  0.724
 
band    16 # energy    2.27580263 # occ.  0.00000000
 
ion      s     py     pz     px    dxy    dyz    dz2    dxz  x2-y2    tot
    1  0.000  0.009  0.000  0.002  0.053  0.000  0.000  0.000  0.242  0.305
    2  0.000  0.189  0.000  0.041  0.000  0.000  0.000  0.000  0.000  0.230
    3  0.000  0.189  0.000  0.041  0.000  0.000  0.000  0.000  0.000  0.230
tot    0.000  0.386  0.000  0.085  0.053  0.000  0.000  0.000  0.242  0.765
 
band    17 # energy    2.27580380 # occ.  0.00000000
 
ion      s     py     pz     px    dxy    dyz    dz2    dxz  x2-y2    tot
    1  0.000  0.002  0.000  0.009  0.242  0.000  0.000  0.000  0.053  0.305
    2  0.000  0.041  0.000  0.189  0.000  0.000  0.000  0.000  0.000  0.230
    3  0.000  0.041  0.000  0.189  0.000  0.000  0.000  0.000  0.000  0.230
tot    0.000  0.085  0.000  0.386  0.242  0.000  0.000  0.000  0.053  0.765
 
band    18 # energy    4.53739246 # occ.  0.00000000
 
ion      s     py     pz     px    dxy    dyz    dz2    dxz  x2-y2    tot
    1  0.027  0.000  0.000  0.000  0.000  0.000  0.020  0.000  0.000  0.047
    2  0.021  0.000  0.003  0.000  0.000  0.000  0.000  0.000  0.000  0.024
    3  0.021  0.000  0.003  0.000  0.000  0.000  0.000  0.000  0.000  0.024
tot    0.070  0.000  0.005  0.000  0.000  0.000  0.020  0.000  0.000  0.095
 
band    19 # energy    5.10379933 # occ.  0.00000000
 
ion      s     py     pz     px    dxy    dyz    dz2    dxz  x2-y2    tot
    1  0.000  0.000  0.001  0.000  0.000  0.000  0.000  0.000  0.000  0.001
    2  0.004  0.000  0.024  0.000  0.000  0.000  0.000  0.000  0.000  0.028
    3  0.004  0.000  0.024  0.000  0.000  0.000  0.000  0.000  0.000  0.028
tot    0.007  0.000  0.049  0.000  0.000  0.000  0.000  0.000  0.000  0.057
 
band    20 # energy    5.49984478 # occ.  0.00000000
 
ion      s     py     pz     px    dxy    dyz    dz2    dxz  x2-y2    tot
    1  0.124  0.000  0.000  0.000  0.000  0.000  0.001  0.000  0.000  0.125
    2  0.071  0.000  0.021  0.000  0.000  0.000  0.000  0.000  0.000  0.092
    3  0.071  0.000  0.021  0.000  0.000  0.000  0.000  0.000  0.000  0.092
tot    0.266  0.000  0.042  0.000  0.000  0.000  0.001  0.000  0.000  0.309
 
band    21 # energy    6.60293904 # occ.  0.00000000
 
ion      s     py     pz     px    dxy    dyz    dz2    dxz  x2-y2    tot
    1  0.000  0.000  0.000  0.000  0.000  0.000  0.022  0.000  0.000  0.022
    2  0.001  0.000  0.019  0.000  0.000  0.000  0.000  0.000  0.000  0.019
    3  0.001  0.000  0.019  0.000  0.000  0.000  0.000  0.000  0.000  0.019
tot    0.001  0.000  0.037  0.000  0.000  0.000  0.022  0.000  0.000  0.061
 
band    22 # energy    8.35700419 # occ.  0.00000000
 
ion      s     py     pz     px    dxy    dyz    dz2    dxz  x2-y2    tot
    1  0.000  0.000  0.054  0.000  0.000  0.000  0.000  0.000  0.000  0.054
    2  0.080  0.000  0.000  0.000  0.000  0.000  0.000  0.000  0.000  0.080
    3  0.080  0.000  0.000  0.000  0.000  0.000  0.000  0.000  0.000  0.080
tot    0.161  0.000  0.054  0.000  0.000  0.000  0.000  0.000  0.000  0.215
 
band    23 # energy    8.78997097 # occ.  0.00000000
 
ion      s     py     pz     px    dxy    dyz    dz2    dxz  x2-y2    tot
    1  0.000  0.000  0.002  0.000  0.000  0.000  0.000  0.000  0.000  0.002
    2  0.010  0.000  0.024  0.000  0.000  0.000  0.000  0.000  0.000  0.034
    3  0.010  0.000  0.024  0.000  0.000  0.000  0.000  0.000  0.000  0.034
tot    0.020  0.000  0.049  0.000  0.000  0.000  0.000  0.000  0.000  0.069
 
band    24 # energy   10.23051049 # occ.  0.00000000
 
ion      s     py     pz     px    dxy    dyz    dz2    dxz  x2-y2    tot
    1  0.000  0.064  0.000  0.022  0.005  0.000  0.000  0.000  0.014  0.105
    2  0.000  0.002  0.000  0.001  0.000  0.000  0.000  0.000  0.000  0.003
    3  0.000  0.002  0.000  0.001  0.000  0.000  0.000  0.000  0.000  0.003
tot    0.000  0.069  0.000  0.023  0.005  0.000  0.000  0.000  0.014  0.111
 

 k-point     2 :    0.02631579 0.00000000 0.00000000     weight = 0.01666667

band     1 # energy  -61.57123452 # occ.  2.00000000
 
ion      s     py     pz     px    dxy    dyz    dz2    dxz  x2-y2    tot
    1  0.995  0.000  0.000  0.000  0.000  0.000  0.000  0.000  0.000  0.995
    2  0.000  0.000  0.000  0.000  0.000  0.000  0.000  0.000  0.000  0.000
    3  0.000  0.000  0.000  0.000  0.000  0.000  0.000  0.000  0.000  0.000
tot    0.995  0.000  0.000  0.000  0.000  0.000  0.000  0.000  0.000  0.995
 
band     2 # energy  -35.73614685 # occ.  2.00000000
 
ion      s     py     pz     px    dxy    dyz    dz2    dxz  x2-y2    tot
    1  0.000  0.000  0.979  0.000  0.000  0.000  0.000  0.000  0.000  0.979
    2  0.002  0.000  0.001  0.000  0.000  0.000  0.000  0.000  0.000  0.002
    3  0.002  0.000  0.001  0.000  0.000  0.000  0.000  0.000  0.000  0.002
tot    0.003  0.000  0.980  0.000  0.000  0.000  0.000  0.000  0.000  0.983
 
band     3 # energy  -35.53110977 # occ.  2.00000000
 
ion      s     py     pz     px    dxy    dyz    dz2    dxz  x2-y2    tot
    1  0.000  0.244  0.000  0.750  0.000  0.000  0.000  0.000  0.000  0.994
    2  0.000  0.000  0.000  0.000  0.000  0.000  0.000  0.000  0.000  0.000
    3  0.000  0.000  0.000  0.000  0.000  0.000  0.000  0.000  0.000  0.000
tot    0.000  0.244  0.000  0.750  0.000  0.000  0.000  0.000  0.000  0.994
 
band     4 # energy  -35.52871107 # occ.  2.00000000
 
ion      s     py     pz     px    dxy    dyz    dz2    dxz  x2-y2    tot
    1  0.000  0.750  0.000  0.244  0.000  0.000  0.000  0.000  0.000  0.994
    2  0.000  0.000  0.000  0.000  0.000  0.000  0.000  0.000  0.000  0.000
    3  0.000  0.000  0.000  0.000  0.000  0.000  0.000  0.000  0.000  0.000
tot    0.000  0.751  0.000  0.244  0.000  0.000  0.000  0.000  0.000  0.994
 
band     5 # energy  -14.80246680 # occ.  2.00000000
 
ion      s     py     pz     px    dxy    dyz    dz2    dxz  x2-y2    tot
    1  0.080  0.000  0.000  0.000  0.000  0.000  0.000  0.000  0.000  0.081
    2  0.275  0.000  0.005  0.000  0.000  0.000  0.000  0.000  0.000  0.281
    3  0.275  0.000  0.005  0.000  0.000  0.000  0.000  0.000  0.000  0.281
tot    0.631  0.000  0.010  0.000  0.000  0.000  0.000  0.000  0.000  0.642
 
band     6 # energy  -13.50520616 # occ.  2.00000000
 
ion      s     py     pz     px    dxy    dyz    dz2    dxz  x2-y2    tot
    1  0.000  0.000  0.034  0.000  0.000  0.000  0.000  0.000  0.000  0.034
    2  0.314  0.000  0.000  0.000  0.000  0.000  0.000  0.000  0.000  0.314
    3  0.314  0.000  0.000  0.000  0.000  0.000  0.000  0.000  0.000  0.314
tot    0.627  0.000  0.034  0.000  0.000  0.000  0.000  0.000  0.000  0.662
 
band     7 # energy   -6.32644940 # occ.  2.00000000
 
ion      s     py     pz     px    dxy    dyz    dz2    dxz  x2-y2    tot
    1  0.094  0.000  0.000  0.000  0.000  0.000  0.175  0.000  0.000  0.269
    2  0.018  0.000  0.126  0.000  0.000  0.000  0.000  0.000  0.000  0.144
    3  0.018  0.000  0.126  0.000  0.000  0.000  0.000  0.000  0.000  0.144
tot    0.130  0.000  0.253  0.000  0.000  0.000  0.175  0.000  0.000  0.558
 
band     8 # energy   -3.36172030 # occ.  2.00000000
 
ion      s     py     pz     px    dxy    dyz    dz2    dxz  x2-y2    tot
    1  0.001  0.001  0.000  0.003  0.403  0.000  0.000  0.000  0.134  0.542
    2  0.000  0.029  0.000  0.087  0.000  0.000  0.000  0.000  0.000  0.116
    3  0.000  0.029  0.000  0.087  0.000  0.000  0.000  0.000  0.000  0.116
tot    0.002  0.059  0.000  0.176  0.403  0.000  0.000  0.000  0.134  0.774
 
band     9 # energy   -3.32660813 # occ.  2.00000000
 
ion      s     py     pz     px    dxy    dyz    dz2    dxz  x2-y2    tot
    1  0.000  0.003  0.000  0.001  0.135  0.000  0.000  0.000  0.406  0.545
    2  0.000  0.087  0.000  0.029  0.000  0.000  0.000  0.000  0.000  0.116
    3  0.000  0.087  0.000  0.029  0.000  0.000  0.000  0.000  0.000  0.116
tot    0.000  0.177  0.000  0.059  0.135  0.000  0.000  0.000  0.406  0.776
 
band    10 # energy   -2.59275363 # occ.  2.00000000
 
ion      s     py     pz     px    dxy    dyz    dz2    dxz  x2-y2    tot
    1  0.000  0.000  0.020  0.000  0.000  0.030  0.000  0.091  0.000  0.142
    2  0.000  0.008  0.194  0.023  0.000  0.000  0.000  0.000  0.000  0.225
    3  0.000  0.008  0.194  0.023  0.000  0.000  0.000  0.000  0.000  0.225
tot    0.001  0.015  0.408  0.046  0.000  0.030  0.000  0.091  0.000  0.591
 
band    11 # energy   -2.24693014 # occ.  2.00000000
 
ion      s     py     pz     px    dxy    dyz    dz2    dxz  x2-y2    tot
    1  0.000  0.000  0.000  0.000  0.000  0.372  0.000  0.124  0.000  0.496
    2  0.000  0.117  0.000  0.039  0.000  0.000  0.000  0.000  0.000  0.156
    3  0.000  0.117  0.000  0.039  0.000  0.000  0.000  0.000  0.000  0.156
tot    0.000  0.235  0.000  0.078  0.000  0.372  0.000  0.124  0.000  0.809
 
band    12 # energy   -2.15111588 # occ.  2.00000000
 
ion      s     py     pz     px    dxy    dyz    dz2    dxz  x2-y2    tot
    1  0.000  0.000  0.010  0.000  0.000  0.092  0.000  0.277  0.000  0.379
    2  0.000  0.032  0.055  0.096  0.000  0.000  0.000  0.000  0.000  0.182
    3  0.000  0.032  0.055  0.096  0.000  0.000  0.000  0.000  0.000  0.182
tot    0.000  0.064  0.119  0.191  0.000  0.092  0.000  0.277  0.000  0.743
 
band    13 # energy   -0.73679461 # occ.  2.00000000
 
ion      s     py     pz     px    dxy    dyz    dz2    dxz  x2-y2    tot
    1  0.011  0.000  0.000  0.000  0.001  0.000  0.567  0.000  0.000  0.579
    2  0.002  0.000  0.070  0.000  0.000  0.000  0.000  0.000  0.000  0.073
    3  0.002  0.000  0.070  0.000  0.000  0.000  0.000  0.000  0.000  0.073
tot    0.016  0.000  0.139  0.001  0.001  0.000  0.567  0.000  0.000  0.724
 
band    14 # energy    2.01560365 # occ.  0.00000000
 
ion      s     py     pz     px    dxy    dyz    dz2    dxz  x2-y2    tot
    1  0.000  0.000  0.000  0.000  0.000  0.090  0.000  0.271  0.000  0.362
    2  0.001  0.045  0.000  0.134  0.000  0.000  0.000  0.000  0.000  0.180
    3  0.001  0.045  0.000  0.134  0.000  0.000  0.000  0.000  0.000  0.180
tot    0.002  0.089  0.000  0.268  0.000  0.090  0.000  0.271  0.000  0.722
 
band    15 # energy    2.05207467 # occ.  0.00000000
 
ion      s     py     pz     px    dxy    dyz    dz2    dxz  x2-y2    tot
    1  0.000  0.000  0.000  0.000  0.000  0.269  0.000  0.089  0.000  0.358
    2  0.000  0.137  0.000  0.046  0.000  0.000  0.000  0.000  0.000  0.183
    3  0.000  0.137  0.000  0.046  0.000  0.000  0.000  0.000  0.000  0.183
tot    0.000  0.275  0.000  0.091  0.000  0.269  0.000  0.089  0.000  0.725
 
band    16 # energy    2.24472732 # occ.  0.00000000
 
ion      s     py     pz     px    dxy    dyz    dz2    dxz  x2-y2    tot
    1  0.000  0.003  0.000  0.008  0.222  0.000  0.001  0.000  0.074  0.308
    2  0.001  0.056  0.000  0.169  0.000  0.000  0.000  0.000  0.000  0.227
    3  0.001  0.056  0.000  0.169  0.000  0.000  0.000  0.000  0.000  0.227
tot    0.002  0.115  0.000  0.346  0.222  0.000  0.001  0.000  0.074  0.762
 
band    17 # energy    2.26458546 # occ.  0.00000000
 
ion      s     py     pz     px    dxy    dyz    dz2    dxz  x2-y2    tot
    1  0.000  0.008  0.000  0.003  0.074  0.000  0.000  0.000  0.222  0.307
    2  0.000  0.172  0.000  0.057  0.000  0.000  0.000  0.000  0.000  0.229
    3  0.000  0.172  0.000  0.057  0.000  0.000  0.000  0.000  0.000  0.229
tot    0.000  0.352  0.000  0.117  0.074  0.000  0.000  0.000  0.222  0.765
 
band    18 # energy    4.55718865 # occ.  0.00000000
 
ion      s     py     pz     px    dxy    dyz    dz2    dxz  x2-y2    tot
    1  0.025  0.000  0.000  0.000  0.000  0.000  0.020  0.000  0.000  0.046
    2  0.020  0.000  0.003  0.001  0.000  0.000  0.000  0.000  0.000  0.024
    3  0.020  0.000  0.003  0.001  0.000  0.000  0.000  0.000  0.000  0.024
tot    0.065  0.001  0.006  0.002  0.000  0.000  0.020  0.000  0.000  0.094
 
band    19 # energy    5.11726210 # occ.  0.00000000
 
ion      s     py     pz     px    dxy    dyz    dz2    dxz  x2-y2    tot
    1  0.000  0.000  0.001  0.000  0.000  0.000  0.000  0.000  0.000  0.002
    2  0.004  0.000  0.024  0.000  0.000  0.000  0.000  0.000  0.000  0.028
    3  0.004  0.000  0.024  0.000  0.000  0.000  0.000  0.000  0.000  0.028
tot    0.007  0.000  0.050  0.000  0.000  0.000  0.000  0.000  0.000  0.057
 
band    20 # energy    5.54662339 # occ.  0.00000000
 
ion      s     py     pz     px    dxy    dyz    dz2    dxz  x2-y2    tot
    1  0.125  0.000  0.000  0.000  0.000  0.000  0.002  0.000  0.000  0.127
    2  0.071  0.000  0.021  0.001  0.000  0.000  0.000  0.000  0.000  0.094
    3  0.071  0.000  0.021  0.001  0.000  0.000  0.000  0.000  0.000  0.094
tot    0.266  0.001  0.041  0.003  0.000  0.000  0.002  0.000  0.000  0.314
 
band    21 # energy    6.61908691 # occ.  0.00000000
 
ion      s     py     pz     px    dxy    dyz    dz2    dxz  x2-y2    tot
    1  0.000  0.000  0.000  0.000  0.001  0.000  0.022  0.000  0.000  0.022
    2  0.001  0.000  0.019  0.000  0.000  0.000  0.000  0.000  0.000  0.020
    3  0.001  0.000  0.019  0.000  0.000  0.000  0.000  0.000  0.000  0.020
tot    0.001  0.000  0.038  0.000  0.001  0.000  0.022  0.000  0.000  0.061
 
band    22 # energy    8.40696718 # occ.  0.00000000
 
ion      s     py     pz     px    dxy    dyz    dz2    dxz  x2-y2    tot
    1  0.000  0.000  0.053  0.000  0.000  0.000  0.000  0.000  0.000  0.054
    2  0.078  0.001  0.000  0.002  0.000  0.000  0.000  0.000  0.000  0.081
    3  0.078  0.001  0.000  0.002  0.000  0.000  0.000  0.000  0.000  0.081
tot    0.157  0.001  0.053  0.003  0.000  0.000  0.000  0.000  0.000  0.215
 
band    23 # energy    8.80157159 # occ.  0.00000000
 
ion      s     py     pz     px    dxy    dyz    dz2    dxz  x2-y2    tot
    1  0.000  0.000  0.002  0.000  0.000  0.000  0.000  0.000  0.000  0.002
    2  0.010  0.000  0.024  0.000  0.000  0.000  0.000  0.000  0.000  0.034
    3  0.010  0.000  0.024  0.000  0.000  0.000  0.000  0.000  0.000  0.034
tot    0.021  0.000  0.050  0.000  0.000  0.000  0.000  0.000  0.000  0.070
 
band    24 # energy   10.15782727 # occ.  0.00000000
 
ion      s     py     pz     px    dxy    dyz    dz2    dxz  x2-y2    tot
    1  0.017  0.021  0.000  0.051  0.012  0.000  0.006  0.000  0.005  0.112
    2  0.002  0.001  0.002  0.002  0.000  0.000  0.000  0.000  0.000  0.007
    3  0.002  0.001  0.002  0.002  0.000  0.000  0.000  0.000  0.000  0.007
tot    0.020  0.023  0.004  0.056  0.012  0.000  0.006  0.000  0.005  0.126
 

 k-point     3 :    0.05263158 0.00000000 0.00000000     weight = 0.01666667

band     1 # energy  -61.57054344 # occ.  2.00000000
 
ion      s     py     pz     px    dxy    dyz    dz2    dxz  x2-y2    tot
    1  0.995  0.000  0.000  0.000  0.000  0.000  0.000  0.000  0.000  0.995
    2  0.000  0.000  0.000  0.000  0.000  0.000  0.000  0.000  0.000  0.000
    3  0.000  0.000  0.000  0.000  0.000  0.000  0.000  0.000  0.000  0.000
tot    0.995  0.000  0.000  0.000  0.000  0.000  0.000  0.000  0.000  0.995
 
band     2 # energy  -35.73460263 # occ.  2.00000000
 
ion      s     py     pz     px    dxy    dyz    dz2    dxz  x2-y2    tot
    1  0.000  0.000  0.979  0.000  0.000  0.000  0.000  0.000  0.000  0.979
    2  0.002  0.000  0.001  0.000  0.000  0.000  0.000  0.000  0.000  0.002
    3  0.002  0.000  0.001  0.000  0.000  0.000  0.000  0.000  0.000  0.002
tot    0.003  0.000  0.980  0.000  0.000  0.000  0.000  0.000  0.000  0.983
 
band     3 # energy  -35.53924378 # occ.  2.00000000
 
ion      s     py     pz     px    dxy    dyz    dz2    dxz  x2-y2    tot
    1  0.000  0.247  0.000  0.746  0.000  0.000  0.000  0.000  0.000  0.993
    2  0.000  0.000  0.000  0.000  0.000  0.000  0.000  0.000  0.000  0.000
    3  0.000  0.000  0.000  0.000  0.000  0.000  0.000  0.000  0.000  0.000
tot    0.000  0.247  0.000  0.747  0.000  0.000  0.000  0.000  0.000  0.994
 
band     4 # energy  -35.53086640 # occ.  2.00000000
 
ion      s     py     pz     px    dxy    dyz    dz2    dxz  x2-y2    tot
    1  0.000  0.747  0.000  0.247  0.000  0.000  0.000  0.000  0.000  0.994
    2  0.000  0.000  0.000  0.000  0.000  0.000  0.000  0.000  0.000  0.000
    3  0.000  0.000  0.000  0.000  0.000  0.000  0.000  0.000  0.000  0.000
tot    0.000  0.747  0.000  0.247  0.000  0.000  0.000  0.000  0.000  0.994
 
band     5 # energy  -14.77168940 # occ.  2.00000000
 
ion      s     py     pz     px    dxy    dyz    dz2    dxz  x2-y2    tot
    1  0.079  0.000  0.000  0.001  0.000  0.000  0.000  0.000  0.000  0.081
    2  0.276  0.000  0.005  0.000  0.000  0.000  0.000  0.000  0.000  0.281
    3  0.276  0.000  0.005  0.000  0.000  0.000  0.000  0.000  0.000  0.281
tot    0.631  0.000  0.010  0.001  0.000  0.000  0.000  0.000  0.000  0.643
 
band     6 # energy  -13.49260121 # occ.  2.00000000
 
ion      s     py     pz     px    dxy    dyz    dz2    dxz  x2-y2    tot
    1  0.000  0.000  0.033  0.000  0.000  0.000  0.000  0.001  0.000  0.035
    2  0.314  0.000  0.000  0.000  0.000  0.000  0.000  0.000  0.000  0.314
    3  0.314  0.000  0.000  0.000  0.000  0.000  0.000  0.000  0.000  0.314
tot    0.628  0.000  0.034  0.000  0.000  0.000  0.000  0.001  0.000  0.663
 
band     7 # energy   -6.29081821 # occ.  2.00000000
 
ion      s     py     pz     px    dxy    dyz    dz2    dxz  x2-y2    tot
    1  0.092  0.000  0.000  0.001  0.002  0.000  0.173  0.000  0.001  0.269
    2  0.018  0.000  0.127  0.000  0.000  0.000  0.000  0.000  0.000  0.145
    3  0.018  0.000  0.127  0.000  0.000  0.000  0.000  0.000  0.000  0.145
tot    0.128  0.000  0.254  0.001  0.002  0.000  0.173  0.000  0.001  0.559
 
band     8 # energy   -3.43219739 # occ.  2.00000000
 
ion      s     py     pz     px    dxy    dyz    dz2    dxz  x2-y2    tot
    1  0.005  0.001  0.000  0.003  0.392  0.000  0.000  0.000  0.131  0.531
    2  0.002  0.029  0.000  0.087  0.000  0.000  0.000  0.000  0.000  0.117
    3  0.002  0.029  0.000  0.087  0.000  0.000  0.000  0.000  0.000  0.117
tot    0.008  0.059  0.000  0.177  0.392  0.000  0.000  0.000  0.131  0.766
 
band     9 # energy   -3.29425506 # occ.  2.00000000
 
ion      s     py     pz     px    dxy    dyz    dz2    dxz  x2-y2    tot
    1  0.000  0.003  0.000  0.001  0.134  0.000  0.000  0.000  0.402  0.540
    2  0.000  0.088  0.000  0.029  0.000  0.000  0.000  0.000  0.000  0.117
    3  0.000  0.088  0.000  0.029  0.000  0.000  0.000  0.000  0.000  0.117
tot    0.000  0.179  0.000  0.060  0.134  0.000  0.000  0.000  0.402  0.775
 
band    10 # energy   -2.76522164 # occ.  2.00000000
 
ion      s     py     pz     px    dxy    dyz    dz2    dxz  x2-y2    tot
    1  0.000  0.000  0.012  0.000  0.000  0.053  0.000  0.158  0.000  0.223
    2  0.000  0.013  0.155  0.039  0.000  0.000  0.000  0.000  0.000  0.206
    3  0.000  0.013  0.155  0.039  0.000  0.000  0.000  0.000  0.000  0.206
tot    0.001  0.026  0.321  0.077  0.000  0.053  0.000  0.158  0.000  0.636
 
band    11 # energy   -2.29830828 # occ.  2.00000000
 
ion      s     py     pz     px    dxy    dyz    dz2    dxz  x2-y2    tot
    1  0.000  0.000  0.000  0.000  0.000  0.369  0.000  0.123  0.000  0.493
    2  0.000  0.118  0.000  0.039  0.000  0.000  0.000  0.000  0.000  0.157
    3  0.000  0.118  0.000  0.039  0.000  0.000  0.000  0.000  0.000  0.157
tot    0.000  0.235  0.000  0.078  0.000  0.369  0.000  0.123  0.000  0.806
 
band    12 # energy   -2.02529960 # occ.  2.00000000
 
ion      s     py     pz     px    dxy    dyz    dz2    dxz  x2-y2    tot
    1  0.000  0.000  0.019  0.000  0.000  0.066  0.000  0.197  0.000  0.281
    2  0.000  0.028  0.094  0.084  0.000  0.000  0.000  0.000  0.000  0.205
    3  0.000  0.028  0.094  0.084  0.000  0.000  0.000  0.000  0.000  0.205
tot    0.000  0.056  0.206  0.167  0.000  0.066  0.000  0.197  0.000  0.692
 
band    13 # energy   -0.75122894 # occ.  2.00000000
 
ion      s     py     pz     px    dxy    dyz    dz2    dxz  x2-y2    tot
    1  0.012  0.000  0.000  0.000  0.004  0.000  0.563  0.000  0.001  0.580
    2  0.003  0.001  0.069  0.002  0.000  0.000  0.000  0.000  0.000  0.074
    3  0.003  0.001  0.069  0.002  0.000  0.000  0.000  0.000  0.000  0.074
tot    0.017  0.001  0.137  0.004  0.004  0.000  0.563  0.000  0.001  0.728
 
band    14 # energy    1.96888955 # occ.  0.00000000
 
ion      s     py     pz     px    dxy    dyz    dz2    dxz  x2-y2    tot
    1  0.000  0.000  0.000  0.000  0.000  0.094  0.000  0.282  0.000  0.377
    2  0.004  0.042  0.001  0.125  0.000  0.000  0.000  0.000  0.000  0.171
    3  0.004  0.042  0.001  0.125  0.000  0.000  0.000  0.000  0.000  0.171
tot    0.009  0.083  0.001  0.250  0.000  0.094  0.000  0.282  0.000  0.719
 
band    15 # energy    2.10667770 # occ.  0.00000000
 
ion      s     py     pz     px    dxy    dyz    dz2    dxz  x2-y2    tot
    1  0.000  0.000  0.000  0.000  0.000  0.273  0.000  0.091  0.000  0.364
    2  0.000  0.137  0.000  0.046  0.000  0.000  0.000  0.000  0.000  0.182
    3  0.000  0.137  0.000  0.046  0.000  0.000  0.000  0.000  0.000  0.182
tot    0.000  0.274  0.000  0.091  0.000  0.273  0.000  0.091  0.000  0.729
 
band    16 # energy    2.15528866 # occ.  0.00000000
 
ion      s     py     pz     px    dxy    dyz    dz2    dxz  x2-y2    tot
    1  0.001  0.002  0.000  0.007  0.224  0.000  0.006  0.000  0.075  0.316
    2  0.003  0.053  0.001  0.160  0.000  0.000  0.000  0.000  0.000  0.217
    3  0.003  0.053  0.001  0.160  0.000  0.000  0.000  0.000  0.000  0.217
tot    0.008  0.109  0.002  0.327  0.224  0.000  0.006  0.000  0.075  0.750
 
band    17 # energy    2.22931298 # occ.  0.00000000
 
ion      s     py     pz     px    dxy    dyz    dz2    dxz  x2-y2    tot
    1  0.000  0.008  0.000  0.003  0.075  0.000  0.000  0.000  0.226  0.312
    2  0.000  0.169  0.000  0.056  0.000  0.000  0.000  0.000  0.000  0.226
    3  0.000  0.169  0.000  0.056  0.000  0.000  0.000  0.000  0.000  0.226
tot    0.000  0.347  0.000  0.116  0.075  0.000  0.000  0.000  0.226  0.764
 
band    18 # energy    4.61284307 # occ.  0.00000000
 
ion      s     py     pz     px    dxy    dyz    dz2    dxz  x2-y2    tot
    1  0.021  0.000  0.000  0.000  0.001  0.000  0.021  0.000  0.000  0.043
    2  0.017  0.001  0.003  0.002  0.000  0.000  0.000  0.000  0.000  0.023
    3  0.017  0.001  0.003  0.002  0.000  0.000  0.000  0.000  0.000  0.023
tot    0.055  0.002  0.007  0.005  0.001  0.000  0.021  0.000  0.000  0.090
 
band    19 # energy    5.15747661 # occ.  0.00000000
 
ion      s     py     pz     px    dxy    dyz    dz2    dxz  x2-y2    tot
    1  0.000  0.000  0.001  0.000  0.000  0.000  0.000  0.001  0.000  0.002
    2  0.003  0.000  0.024  0.000  0.000  0.000  0.000  0.000  0.000  0.028
    3  0.003  0.000  0.024  0.000  0.000  0.000  0.000  0.000  0.000  0.028
tot    0.007  0.000  0.050  0.000  0.000  0.000  0.000  0.001  0.000  0.058
 
band    20 # energy    5.68270338 # occ.  0.00000000
 
ion      s     py     pz     px    dxy    dyz    dz2    dxz  x2-y2    tot
    1  0.125  0.000  0.000  0.001  0.002  0.000  0.003  0.000  0.001  0.132
    2  0.071  0.002  0.019  0.005  0.000  0.000  0.000  0.000  0.000  0.097
    3  0.071  0.002  0.019  0.005  0.000  0.000  0.000  0.000  0.000  0.097
tot    0.267  0.004  0.039  0.011  0.002  0.000  0.003  0.000  0.001  0.326
 
band    21 # energy    6.66765493 # occ.  0.00000000
 