<?xml version="1.0" encoding="ISO-8859-1"?>
<modeling>
 <generator>
  <i name="program" type="string">vasp </i>
  <i name="version" type="string">5.4.4.18Apr17-6-g9f103f2a35  </i>
  <i name="subversion" type="string">(build Apr 28 2023 10:04:10) complex            parallel </i>
  <i name="platform" type="string">LinuxIFC </i>
  <i name="date" type="string">2023 11 23 </i>
  <i name="time" type="string">16:01:55 </i>
 </generator>
 <incar>
  <i type="int" name="ISTART">     1</i>
  <i type="string" name="PREC">normal</i>
  <i type="logical" name="ADDGRID"> T  </i>
  <i type="int" name="ISPIN">     1</i>
  <i type="int" name="ICHARG">    11</i>
  <i type="int" name="NELM">    60</i>
  <i name="EDIFF">      0.00000001</i>
  <i type="int" name="NEDOS">  2001</i>
  <i type="logical" name="LREAL"> F  </i>
  <i name="EMIN">    -11.00000000</i>
  <i name="EMAX">      9.00000000</i>
  <i type="int" name="ISMEAR">     0</i>
  <i name="SIGMA">      0.05000000</i>
  <i type="logical" name="LWAVE"> T  </i>
  <i type="logical" name="LCHARG"> T  </i>
  <i type="int" name="LORBIT">    11</i>
  <v type="int" name="KPOINT_BSE">    -1     0     0     0</v>
  <i type="int" name="NELM">    60</i>
 </incar>
 <structure name="primitive_cell" >
  <crystal>
   <varray name="basis" >
    <v>       3.18386047       0.00000000       0.00000000 </v>
    <v>      -1.59193023       2.75730405       0.00000000 </v>
    <v>       0.00000000       0.00000000      15.00000000 </v>
   </varray>
   <i name="volume">    131.68307038 </i>
   <varray name="rec_basis" >
    <v>       0.31408412       0.18133655       0.00000000 </v>
    <v>       0.00000000       0.36267310       0.00000000 </v>
    <v>       0.00000000       0.00000000       0.06666667 </v>
   </varray>
  </crystal>
  <varray name="positions" >
   <v>      -0.33333331       0.33333334       0.25000000 </v>
   <v>       0.33333334      -0.33333331       0.35415213 </v>
   <v>       0.33333334      -0.33333331       0.14584787 </v>
  </varray>
 </structure>
 <varray name="primitive_index" >
  <v type="int" >        1 </v>
  <v type="int" >        2 </v>
  <v type="int" >        3 </v>
 </varray>
 <kpoints>
  <generation param="listgenerated">
   <i name="divisions" type="int">      20 </i>
   <v>       0.00000000       0.00000000       0.00000000 </v>
   <v>       0.50000000       0.00000000       0.00000000 </v>
   <v>       0.33333333       0.33333333       0.00000000 </v>
   <v>       0.00000000       0.00000000       0.00000000 </v>
  </generation>
  <varray name="kpointlist" >
   <v>       0.00000000       0.00000000       0.00000000 </v>
   <v>       0.02631579       0.00000000       0.00000000 </v>
   <v>       0.05263158       0.00000000       0.00000000 </v>
   <v>       0.07894737       0.00000000       0.00000000 </v>
   <v>       0.10526316       0.00000000       0.00000000 </v>
   <v>       0.13157895       0.00000000       0.00000000 </v>
   <v>       0.15789474       0.00000000       0.00000000 </v>
   <v>       0.18421053       0.00000000       0.00000000 </v>
   <v>       0.21052632       0.00000000       0.00000000 </v>
   <v>       0.23684211       0.00000000       0.00000000 </v>
   <v>       0.26315789       0.00000000       0.00000000 </v>
   <v>       0.28947368       0.00000000       0.00000000 </v>
   <v>       0.31578947       0.00000000       0.00000000 </v>
   <v>       0.34210526       0.00000000       0.00000000 </v>
   <v>       0.36842105       0.00000000       0.00000000 </v>
   <v>       0.39473684       0.00000000       0.00000000 </v>
   <v>       0.42105263       0.00000000       0.00000000 </v>
   <v>       0.44736842       0.00000000       0.00000000 </v>
   <v>       0.47368421       0.00000000       0.00000000 </v>
   <v>       0.50000000       0.00000000       0.00000000 </v>
   <v>       0.50000000       0.00000000       0.00000000 </v>
   <v>       0.49122807       0.01754386       0.00000000 </v>
   <v>       0.48245614       0.03508772       0.00000000 </v>
   <v>       0.47368421       0.05263158       0.00000000 </v>
   <v>       0.46491228       0.07017544       0.00000000 </v>
   <v>       0.45614035       0.08771930       0.00000000 </v>
   <v>       0.44736842       0.10526316       0.00000000 </v>
   <v>       0.43859649       0.12280702       0.00000000 </v>
   <v>       0.42982456       0.14035088       0.00000000 </v>
   <v>       0.42105263       0.15789474       0.00000000 </v>
   <v>       0.41228070       0.17543860       0.00000000 </v>
   <v>       0.40350877       0.19298246       0.00000000 </v>
   <v>       0.39473684       0.21052632       0.00000000 </v>
   <v>       0.38596491       0.22807018       0.00000000 </v>
   <v>       0.37719298       0.24561404       0.00000000 </v>
   <v>       0.36842105       0.26315789       0.00000000 </v>
   <v>       0.35964912       0.28070175       0.00000000 </v>
   <v>       0.35087719       0.29824561       0.00000000 </v>
   <v>       0.34210526       0.31578947       0.00000000 </v>
   <v>       0.33333333       0.33333333       0.00000000 </v>
   <v>       0.33333333       0.33333333       0.00000000 </v>
   <v>       0.31578947       0.31578947       0.00000000 </v>
   <v>       0.29824561       0.29824561       0.00000000 </v>
   <v>       0.28070175       0.28070175       0.00000000 </v>
   <v>       0.26315789       0.26315789       0.00000000 </v>
   <v>       0.24561404       0.24561404       0.00000000 </v>
   <v>       0.22807018       0.22807018       0.00000000 </v>
   <v>       0.21052632       0.21052632       0.00000000 </v>
   <v>       0.19298246       0.19298246       0.00000000 </v>
   <v>       0.17543860       0.17543860       0.00000000 </v>
   <v>       0.15789474       0.15789474       0.00000000 </v>
   <v>       0.14035088       0.14035088       0.00000000 </v>
   <v>       0.12280702       0.12280702       0.00000000 </v>
   <v>       0.10526316       0.10526316       0.00000000 </v>
   <v>       0.08771930       0.08771930       0.00000000 </v>
   <v>       0.07017544       0.07017544       0.00000000 </v>
   <v>       0.05263158       0.05263158       0.00000000 </v>
   <v>       0.03508772       0.03508772       0.00000000 </v>
   <v>       0.01754386       0.01754386       0.00000000 </v>
   <v>       0.00000000       0.00000000       0.00000000 </v>
  </varray>
  <varray name="weights" >
   <v>       0.01666667 </v>
   <v>       0.01666667 </v>
   <v>       0.01666667 </v>
   <v>       0.01666667 </v>
   <v>       0.01666667 </v>
   <v>       0.01666667 </v>
   <v>       0.01666667 </v>
   <v>       0.01666667 </v>
   <v>       0.01666667 </v>
   <v>       0.01666667 </v>
   <v>       0.01666667 </v>
   <v>       0.01666667 </v>
   <v>       0.01666667 </v>
   <v>       0.01666667 </v>
   <v>       0.01666667 </v>
   <v>       0.01666667 </v>
   <v>       0.01666667 </v>
   <v>       0.01666667 </v>
   <v>       0.01666667 </v>
   <v>       0.01666667 </v>
   <v>       0.01666667 </v>
   <v>       0.01666667 </v>
   <v>       0.01666667 </v>
   <v>       0.01666667 </v>
   <v>       0.01666667 </v>
   <v>       0.01666667 </v>
   <v>       0.01666667 </v>
   <v>       0.01666667 </v>
   <v>       0.01666667 </v>
   <v>       0.01666667 </v>
   <v>       0.01666667 </v>
   <v>       0.01666667 </v>
   <v>       0.01666667 </v>
   <v>       0.01666667 </v>
   <v>       0.01666667 </v>
   <v>       0.01666667 </v>
   <v>       0.01666667 </v>
   <v>       0.01666667 </v>
   <v>       0.01666667 </v>
   <v>       0.01666667 </v>
   <v>       0.01666667 </v>
   <v>       0.01666667 </v>
   <v>       0.01666667 </v>
   <v>       0.01666667 </v>
   <v>       0.01666667 </v>
   <v>       0.01666667 </v>
   <v>       0.01666667 </v>
   <v>       0.01666667 </v>
   <v>       0.01666667 </v>
   <v>       0.01666667 </v>
   <v>       0.01666667 </v>
   <v>       0.01666667 </v>
   <v>       0.01666667 </v>
   <v>       0.01666667 </v>
   <v>       0.01666667 </v>
   <v>       0.01666667 </v>
   <v>       0.01666667 </v>
   <v>       0.01666667 </v>
   <v>       0.01666667 </v>
   <v>       0.01666667 </v>
  </varray>
 </kpoints>
 <parameters>
  <separator name="general" >
   <i type="string" name="SYSTEM">unknown system</i>
   <i type="logical" name="LCOMPAT"> F  </i>
  </separator>
  <separator name="electronic" >
   <i type="string" name="PREC">normal</i>
   <i name="ENMAX">    258.68900000</i>
   <i name="ENAUG">    446.01400000</i>
   <i name="EDIFF">      0.00000001</i>
   <i type="int" name="IALGO">    38</i>
   <i type="int" name="IWAVPR">    10</i>
   <i type="int" name="NBANDS">    24</i>
   <i name="NELECT">     26.00000000</i>
   <i type="int" name="TURBO">     0</i>
   <i type="int" name="IRESTART">     0</i>
   <i type="int" name="NREBOOT">     0</i>
   <i type="int" name="NMIN">     0</i>
   <i name="EREF">      0.00000000</i>
   <separator name="electronic smearing" >
    <i type="int" name="ISMEAR">     0</i>
    <i name="SIGMA">      0.05000000</i>
    <i name="KSPACING">      0.50000000</i>
    <i type="logical" name="KGAMMA"> T  </i>
   </separator>
   <separator name="electronic projectors" >
    <i type="logical" name="LREAL"> F  </i>
    <v name="ROPT">      0.00000000      0.00000000</v>
    <i type="int" name="LMAXPAW">  -100</i>
    <i type="int" name="LMAXMIX">     2</i>
    <i type="logical" name="NLSPLINE"> F  </i>
   </separator>
   <separator name="electronic startup" >
    <i type="int" name="ISTART">     1</i>
    <i type="int" name="ICHARG">    11</i>
    <i type="int" name="INIWAV">     1</i>
   </separator>
   <separator name="electronic spin" >
    <i type="int" name="ISPIN">     1</i>
    <i type="logical" name="LNONCOLLINEAR"> F  </i>
    <v name="MAGMOM">      1.00000000      1.00000000      1.00000000</v>
    <i name="NUPDOWN">     -1.00000000</i>
    <i type="logical" name="LSORBIT"> F  </i>
    <v name="SAXIS">      0.00000000      0.00000000      1.00000000</v>
    <i type="logical" name="LSPIRAL"> F  </i>
    <v name="QSPIRAL">      0.00000000      0.00000000      0.00000000</v>
    <i type="logical" name="LZEROZ"> F  </i>
   </separator>
   <separator name="electronic exchange-correlation" >
    <i type="logical" name="LASPH"> F  </i>
    <i type="logical" name="LMETAGGA"> F  </i>
   </separator>
   <separator name="electronic convergence" >
    <i type="int" name="NELM">    60</i>
    <i type="int" name="NELMDL">     0</i>
    <i type="int" name="NELMIN">     2</i>
    <i name="ENINI">    258.68900000</i>
    <separator name="electronic convergence detail" >
     <i type="logical" name="LDIAG"> T  </i>
     <i type="logical" name="LSUBROT"> F  </i>
     <i name="WEIMIN">      0.00000000</i>
     <i name="EBREAK">      0.00000000</i>
     <i name="DEPER">      0.30000000</i>
     <i type="int" name="NRMM">     4</i>
     <i name="TIME">      0.40000000</i>
    </separator>
   </separator>
   <separator name="electronic mixer" >
    <i name="AMIX">      0.40000000</i>
    <i name="BMIX">      1.00000000</i>
    <i name="AMIN">      0.10000000</i>
    <i name="AMIX_MAG">      1.60000000</i>
    <i name="BMIX_MAG">      1.00000000</i>
    <separator name="electronic mixer details" >
     <i type="int" name="IMIX">     4</i>
     <i type="logical" name="MIXFIRST"> F  </i>
     <i type="int" name="MAXMIX">   -45</i>
     <i name="WC">    100.00000000</i>
     <i type="int" name="INIMIX">     1</i>
     <i type="int" name="MIXPRE">     1</i>
     <i type="int" name="MREMOVE">     5</i>
    </separator>
   </separator>
   <separator name="electronic dipolcorrection" >
    <i type="logical" name="LDIPOL"> F  </i>
    <i type="logical" name="LMONO"> F  </i>
    <i type="int" name="IDIPOL">     0</i>
    <i name="EPSILON">      1.00000000</i>
    <v name="DIPOL">   -100.00000000   -100.00000000   -100.00000000</v>
    <i name="EFIELD">      0.00000000</i>
   </separator>
  </separator>
  <separator name="grids" >
   <i type="int" name="NGX">    14</i>
   <i type="int" name="NGY">    14</i>
   <i type="int" name="NGZ">    60</i>
   <i type="int" name="NGXF">    28</i>
   <i type="int" name="NGYF">    28</i>
   <i type="int" name="NGZF">   120</i>
   <i type="logical" name="ADDGRID"> T  </i>
  </separator>
  <separator name="ionic" >
   <i type="int" name="NSW">     0</i>
   <i type="int" name="IBRION">    -1</i>
   <i type="int" name="MDALGO">     0</i>
   <i type="int" name="ISIF">     2</i>
   <i name="PSTRESS">      0.00000000</i>
   <i name="EDIFFG">      0.00000010</i>
   <i type="int" name="NFREE">     0</i>
   <i name="POTIM">      0.50000000</i>
   <i name="SMASS">     -3.00000000</i>
   <i name="SCALEE">      1.00000000</i>
  </separator>
  <separator name="ionic md" >
   <i name="TEBEG">      0.00010000</i>
   <i name="TEEND">      0.00010000</i>
   <i type="int" name="NBLOCK">     1</i>
   <i type="int" name="KBLOCK">     1</i>
   <i type="int" name="NPACO">   256</i>
   <i name="APACO">     16.00000000</i>
  </separator>
  <separator name="symmetry" >
   <i type="int" name="ISYM">     2</i>
   <i name="SYMPREC">      0.00001000</i>
  </separator>
  <separator name="dos" >
   <i type="int" name="LORBIT">    11</i>
   <v name="RWIGS">     -1.00000000     -1.00000000</v>
   <i type="int" name="NEDOS">  2001</i>
   <i name="EMIN">    -11.00000000</i>
   <i name="EMAX">      9.00000000</i>
   <i name="EFERMI">      0.00000000</i>
  </separator>
  <separator name="writing" >
   <i type="int" name="NWRITE">     2</i>
   <i type="logical" name="LWAVE"> T  </i>
   <i type="logical" name="LDOWNSAMPLE"> F  </i>
   <i type="logical" name="LCHARG"> T  </i>
   <i type="logical" name="LPARD"> F  </i>
   <i type="logical" name="LVTOT"> F  </i>
   <i type="logical" name="LVHAR"> F  </i>
   <i type="logical" name="LELF"> F  </i>
   <i type="logical" name="LOPTICS"> F  </i>
   <v name="STM">      0.00000000      0.00000000      0.00000000      0.00000000      0.00000000      0.00000000      0.00000000</v>
  </separator>
  <separator name="performance" >
   <i type="int" name="NPAR">    12</i>
   <i type="int" name="NSIM">     4</i>
   <i type="int" name="NBLK">    -1</i>
   <i type="logical" name="LPLANE"> T  </i>
   <i type="logical" name="LSCALAPACK"> T  </i>
   <i type="logical" name="LSCAAWARE"> F  </i>
   <i type="logical" name="LSCALU"> F  </i>
   <i type="logical" name="LASYNC"> F  </i>
   <i type="logical" name="LORBITALREAL"> F  </i>
  </separator>
  <separator name="miscellaneous" >
   <i type="int" name="IDIOT">     3</i>
   <i type="int" name="ISPECIAL">     0</i>
   <i type="logical" name="LMUSIC"> F  </i>
   <v name="POMASS">     95.94000000     32.06600000</v>
   <v name="DARWINR">      0.00000000      0.00000000</v>
   <v name="DARWINV">      1.00000000      1.00000000</v>
   <i type="logical" name="LCORR"> T  </i>
  </separator>
  <i type="logical" name="GGA_COMPAT"> T  </i>
  <i type="logical" name="LBERRY"> F  </i>
  <i type="int" name="ICORELEVEL">     0</i>
  <i type="logical" name="LDAU"> F  </i>
  <i type="int" name="I_CONSTRAINED_M">     0</i>
  <separator name="electronic exchange-correlation" >
   <i type="string" name="GGA">--</i>
   <i type="int" name="VOSKOWN">     0</i>
   <i type="logical" name="LHFCALC"> F  </i>
   <i type="string" name="PRECFOCK"></i>
   <i type="logical" name="LSYMGRAD"> F  </i>
   <i type="logical" name="LHFONE"> F  </i>
   <i type="logical" name="LRHFCALC"> F  </i>
   <i type="logical" name="LTHOMAS"> F  </i>
   <i type="logical" name="LMODELHF"> F  </i>
   <i name="ENCUT4O">     -1.00000000</i>
   <i type="int" name="EXXOEP">     0</i>
   <i type="int" name="FOURORBIT">     0</i>
   <i name="AEXX">      0.00000000</i>
   <i name="HFALPHA">      0.00000000</i>
   <i name="MCALPHA">      0.00000000</i>
   <i name="ALDAX">      1.00000000</i>
   <i name="AGGAX">      1.00000000</i>
   <i name="ALDAC">      1.00000000</i>
   <i name="AGGAC">      1.00000000</i>
   <i type="int" name="NKREDX">     1</i>
   <i type="int" name="NKREDY">     1</i>
   <i type="int" name="NKREDZ">     1</i>
   <i type="logical" name="SHIFTRED"> F  </i>
   <i type="logical" name="ODDONLY"> F  </i>
   <i type="logical" name="EVENONLY"> F  </i>
   <i type="int" name="LMAXFOCK">     0</i>
   <i type="int" name="NMAXFOCKAE">     0</i>
   <i type="logical" name="LFOCKAEDFT"> F  </i>
   <i name="HFSCREEN">      0.00000000</i>
   <i name="HFSCREENC">      0.00000000</i>
   <i type="int" name="NBANDSGWLOW">     0</i>
  </separator>
  <separator name="vdW DFT" >
   <i type="logical" name="LUSE_VDW"> F  </i>
   <i name="Zab_VDW">     -0.84910000</i>
   <i name="PARAM1">      0.12340000</i>
   <i name="PARAM2">      1.00000000</i>
   <i name="PARAM3">      0.00000000</i>
  </separator>
  <separator name="model GW" >
   <i type="int" name="MODEL_GW">     0</i>
   <i name="MODEL_EPS0">     26.33661408</i>
   <i name="MODEL_ALPHA">      1.00000000</i>
  </separator>
  <separator name="linear response parameters" >
   <i type="logical" name="LEPSILON"> F  </i>
   <i type="logical" name="LRPA"> F  </i>
   <i type="logical" name="LNABLA"> F  </i>
   <i type="logical" name="LVEL"> F  </i>
   <i type="int" name="KINTER">     0</i>
   <i name="CSHIFT">      0.10000000</i>
   <i name="OMEGAMAX">     -1.00000000</i>
   <i name="DEG_THRESHOLD">      0.00200000</i>
   <i name="RTIME">     -0.10000000</i>
   <i name="WPLASMAI">      0.00000000</i>
   <v name="DFIELD">      0.00000000      0.00000000      0.00000000</v>
   <v name="WPLASMA">      0.00000000      0.00000000      0.00000000      0.00000000      0.00000000      0.00000000      0.00000000      0.00000000      0.00000000</v>
  </separator>
  <separator name="orbital magnetization" >
   <i type="logical" name="NUCIND"> F  </i>
   <v name="MAGPOS">      0.00000000      0.00000000      0.00000000</v>
   <i type="logical" name="LNICSALL"> T  </i>
   <i type="logical" name="ORBITALMAG"> F  </i>
   <i type="logical" name="LMAGBLOCH"> F  </i>
   <i type="logical" name="LCHIMAG"> F  </i>
   <i type="logical" name="LGAUGE"> T  </i>
   <i type="int" name="MAGATOM">     0</i>
   <v name="MAGDIPOL">      0.00000000      0.00000000      0.00000000</v>
   <v name="AVECCONST">      0.00000000      0.00000000      0.00000000</v>
  </separator>
  <separator name="response functions" >
   <i type="logical" name="LADDER"> F  </i>
   <i type="logical" name="LRPAFORCE"> F  </i>
   <i type="logical" name="LFXC"> F  </i>
   <i type="logical" name="LHARTREE"> T  </i>
   <i type="int" name="IBSE">     0</i>
   <v type="int" name="KPOINT">    -1     0     0     0</v>
   <i type="logical" name="LTCTE"> F  </i>
   <i type="logical" name="LTETE"> F  </i>
   <i type="logical" name="LTRIPLET"> F  </i>
   <i type="logical" name="LFXCEPS"> F  </i>
   <i type="logical" name="LFXHEG"> F  </i>
   <i type="int" name="NATURALO">     2</i>
   <i type="logical" name="L2ORDER"> F  </i>
   <i type="logical" name="LMP2LT"> F  </i>
   <i type="logical" name="LUSEW"> F  </i>
   <i name="ENCUTGW">     -2.00000000</i>
   <i name="ENCUTGWSOFT">     -2.00000000</i>
   <i name="ENCUTLF">     -1.00000000</i>
   <i type="int" name="LMAXMP2">    -1</i>
   <i name="SCISSOR">      0.00000000</i>
   <i type="int" name="NOMEGA">     0</i>
   <i type="int" name="NOMEGAR">     0</i>
   <i type="int" name="NBANDSGW">    -1</i>
   <i type="int" name="NBANDSO">    -1</i>
   <i type="int" name="NBANDSV">    -1</i>
   <i type="int" name="NELM">    60</i>
   <i type="int" name="NELMHF">     1</i>
   <i type="int" name="DIM">     3</i>
   <i type="int" name="ANTIRES">     0</i>
   <i name="OMEGAMAX">    -30.00000000</i>
   <i name="OMEGAMIN">    -30.00000000</i>
   <i name="OMEGATL">   -200.00000000</i>
   <i type="int" name="OMEGAGRID">   140</i>
   <i name="CSHIFT">     -0.10000000</i>
   <i type="logical" name="SELFENERGY"> F  </i>
   <i type="logical" name="LSPECTRAL"> F  </i>
   <i type="logical" name="LSPECTRALGW"> F  </i>
   <i type="logical" name="LSINGLES"> F  </i>
   <i type="logical" name="LFERMIGW"> F  </i>
   <i type="logical" name="ODDONLYGW"> F  </i>
   <i type="logical" name="EVENONLYGW"> F  </i>
   <i type="int" name="NKREDLFX">     1</i>
   <i type="int" name="NKREDLFY">     1</i>
   <i type="int" name="NKREDLFZ">     1</i>
   <i type="int" name="MAXMEM">  2800</i>
   <i type="int" name="TELESCOPE">     0</i>
   <i type="int" name="TAUPAR">     1</i>
   <i type="int" name="OMEGAPAR">    -1</i>
   <i name="LAMBDA">      1.00000000</i>
  </separator>
  <separator name="External order field" >
   <i name="OFIELD_KAPPA">      0.00000000</i>
   <v name="OFIELD_K">      0.00000000      0.00000000      0.00000000</v>
   <i name="OFIELD_Q6_NEAR">      0.00000000</i>
   <i name="OFIELD_Q6_FAR">      0.00000000</i>
   <i name="OFIELD_A">      0.00000000</i>
  </separator>
 </parameters>
 <atominfo>
  <atoms>       3 </atoms>
  <types>       2 </types>
  <array name="atoms" >
   <dimension dim="1">ion</dimension>
   <field type="string">element</field>
   <field type="int">atomtype</field>
   <set>
    <rc><c>Mo</c><c>   1</c></rc>
    <rc><c>S </c><c>   2</c></rc>
    <rc><c>S </c><c>   2</c></rc>
   </set>
  </array>
  <array name="atomtypes" >
   <dimension dim="1">type</dimension>
   <field type="int">atomspertype</field>
   <field type="string">element</field>
   <field>mass</field>
   <field>valence</field>
   <field type="string">pseudopotential</field>
   <set>
    <rc><c>   1</c><c>Mo</c><c>     95.94000000</c><c>     14.00000000</c><c>  PAW_PBE Mo_sv 02Feb2006               </c></rc>
    <rc><c>   2</c><c>S </c><c>     32.06600000</c><c>      6.00000000</c><c>  PAW_PBE S 06Sep2000                   </c></rc>
   </set>
  </array>
 </atominfo>
 <structure name="initialpos" >
  <crystal>
   <varray name="basis" >
    <v>       3.18386047       0.00000000       0.00000000 </v>
    <v>      -1.59193023       2.75730405       0.00000000 </v>
    <v>       0.00000000       0.00000000      15.00000000 </v>
   </varray>
   <i name="volume">    131.68307038 </i>
   <varray name="rec_basis" >
    <v>       0.31408412       0.18133655       0.00000000 </v>
    <v>       0.00000000       0.36267310       0.00000000 </v>
    <v>       0.00000000       0.00000000       0.06666667 </v>
   </varray>
  </crystal>
  <varray name="positions" >
   <v>       0.66666669       0.33333334       0.25000000 </v>
   <v>       0.33333334       0.66666669       0.35415213 </v>
   <v>       0.33333334       0.66666669       0.14584787 </v>
  </varray>
 </structure>
 <calculation>
  <scstep>
   <time name="dav">    1.03    1.04</time>
   <time name="total">    1.06    1.76</time>
   <energy>
    <i name="alphaZ">     35.92459719 </i>
    <i name="ewald">   2754.58837668 </i>
    <i name="hartreedc">  -4899.32017544 </i>
    <i name="XCdc">     90.81144211 </i>
    <i name="pawpsdc">   3040.26826405 </i>
    <i name="pawaedc">  -3019.28142480 </i>
    <i name="eentropy">     -0.00000000 </i>
    <i name="bandstr">   -427.74852757 </i>
    <i name="atom">   2415.78662005 </i>
    <i name="e_fr_energy">     -8.97082773 </i>
    <i name="e_wo_entrp">     -8.97082773 </i>
    <i name="e_0_energy">     -8.97082773 </i>
   </energy>
  </scstep>
  <scstep>
   <time name="dav">    0.93    0.93</time>
   <time name="total">    0.93    0.93</time>
   <energy>
    <i name="e_fr_energy">    -21.32743946 </i>
    <i name="e_wo_entrp">    -21.32743946 </i>
    <i name="e_0_energy">    -21.32743946 </i>
   </energy>
  </scstep>
  <scstep>
   <time name="dav">    0.96    0.96</time>
   <time name="total">    0.96    0.96</time>
   <energy>
    <i name="e_fr_energy">    -21.46775752 </i>
    <i name="e_wo_entrp">    -21.46775752 </i>
    <i name="e_0_energy">    -21.46775752 </i>
   </energy>
  </scstep>
  <scstep>
   <time name="dav">    0.97    0.97</time>
   <time name="total">    0.97    0.97</time>
   <energy>
    <i name="e_fr_energy">    -21.46909231 </i>
    <i name="e_wo_entrp">    -21.46909231 </i>
    <i name="e_0_energy">    -21.46909231 </i>
   </energy>
  </scstep>
  <scstep>
   <time name="dav">    0.95    0.95</time>
   <time name="total">    0.96    0.96</time>
   <energy>
    <i name="e_fr_energy">    -21.46912314 </i>
    <i name="e_wo_entrp">    -21.46912314 </i>
    <i name="e_0_energy">    -21.46912314 </i>
   </energy>
  </scstep>
  <scstep>
   <time name="dav">    0.94    0.94</time>
   <time name="total">    0.94    0.94</time>
   <energy>
    <i name="e_fr_energy">    -21.46912411 </i>
    <i name="e_wo_entrp">    -21.46912411 </i>
    <i name="e_0_energy">    -21.46912411 </i>
   </energy>
  </scstep>
  <scstep>
   <time name="dav">    0.99    0.99</time>
   <time name="total">    0.99    0.99</time>
   <energy>
    <i name="e_fr_energy">    -21.46912415 </i>
    <i name="e_wo_entrp">    -21.46912415 </i>
    <i name="e_0_energy">    -21.46912415 </i>
   </energy>
  </scstep>
  <scstep>
   <time name="dav">    0.90    0.90</time>
   <time name="total">    0.90    0.90</time>
   <energy>
    <i name="alphaZ">     35.92459719 </i>
    <i name="ewald">   2754.58837668 </i>
    <i name="hartreedc">  -4899.32017544 </i>
    <i name="XCdc">     90.81144211 </i>
    <i name="pawpsdc">   3040.26826405 </i>
    <i name="pawaedc">  -3019.28142480 </i>
    <i name="eentropy">     -0.00000000 </i>
    <i name="bandstr">   -440.24682398 </i>
    <i name="atom">   2415.78662005 </i>
    <i name="e_fr_energy">    -21.46912415 </i>
    <i name="e_wo_entrp">    -21.46912415 </i>
    <i name="e_0_energy">    -21.46912415 </i>
   </energy>
  </scstep>
  <structure>
   <crystal>
    <varray name="basis" >
     <v>       3.18386047       0.00000000       0.00000000 </v>
     <v>      -1.59193023       2.75730405       0.00000000 </v>
     <v>       0.00000000       0.00000000      15.00000000 </v>
    </varray>
    <i name="volume">    131.68307038 </i>
    <varray name="rec_basis" >
     <v>       0.31408412       0.18133655       0.00000000 </v>
     <v>       0.00000000       0.36267310       0.00000000 </v>
     <v>       0.00000000       0.00000000       0.06666667 </v>
    </varray>
   </crystal>
   <varray name="positions" >
    <v>       0.66666669       0.33333334       0.25000000 </v>
    <v>       0.33333334       0.66666669       0.35415213 </v>
    <v>       0.33333334       0.66666669       0.14584787 </v>
   </varray>
  </structure>
  <varray name="forces" >
   <v>      -0.00000000       0.00000000      -0.00000000 </v>
   <v>       0.00000000       0.00000000       0.12810226 </v>
   <v>       0.00000000      -0.00000000      -0.12810226 </v>
  </varray>
  <varray name="stress" >
   <v>       3.97440161       0.00000000      -0.00000000 </v>
   <v>       0.00000000       3.97440161      -0.00000000 </v>
   <v>       0.00000000       0.00000000      25.09287963 </v>
  </varray>
  <energy>
   <i name="e_fr_energy">    -21.46912415 </i>
   <i name="e_wo_entrp">    -21.46912415 </i>
   <i name="e_0_energy">     -0.00000000 </i>
  </energy>
  <time name="totalsc">    8.95   24.67</time>
  <eigenvalues>
   <array>
    <dimension dim="1">band</dimension>
    <dimension dim="2">kpoint</dimension>
    <dimension dim="3">spin</dimension>
    <field>eigene</field>
    <field>occ</field>
    <set>
     <set comment="spin 1">
      <set comment="kpoint 1">
       <r>  -61.5715    1.0000 </r>
       <r>  -35.7364    1.0000 </r>
       <r>  -35.5282    1.0000 </r>
       <r>  -35.5282    1.0000 </r>
       <r>  -14.8128    1.0000 </r>
       <r>  -13.5094    1.0000 </r>
       <r>   -6.3384    1.0000 </r>
       <r>   -3.3373    1.0000 </r>
       <r>   -3.3373    1.0000 </r>
       <r>   -2.4989    1.0000 </r>
       <r>   -2.2294    1.0000 </r>
       <r>   -2.2294    1.0000 </r>
       <r>   -0.7326    1.0000 </r>
       <r>    2.0339    0.0000 </r>
       <r>    2.0339    0.0000 </r>
       <r>    2.2758    0.0000 </r>
       <r>    2.2758    0.0000 </r>
       <r>    4.5374    0.0000 </r>
       <r>    5.1038    0.0000 </r>
       <r>    5.4998    0.0000 </r>
       <r>    6.6029    0.0000 </r>
       <r>    8.3570    0.0000 </r>
       <r>    8.7900    0.0000 </r>
       <r>   10.2305    0.0000 </r>
      </set>
      <set comment="kpoint 2">
       <r>  -61.5712    1.0000 </r>
       <r>  -35.7361    1.0000 </r>
       <r>  -35.5311    1.0000 </r>
       <r>  -35.5287    1.0000 </r>
       <r>  -14.8025    1.0000 </r>
       <r>  -13.5052    1.0000 </r>
       <r>   -6.3264    1.0000 </r>
       <r>   -3.3617    1.0000 </r>
       <r>   -3.3266    1.0000 </r>
       <r>   -2.5928    1.0000 </r>
       <r>   -2.2469    1.0000 </r>
       <r>   -2.1511    1.0000 </r>
       <r>   -0.7368    1.0000 </r>
       <r>    2.0156    0.0000 </r>
       <r>    2.0521    0.0000 </r>
       <r>    2.2447    0.0000 </r>
       <r>    2.2646    0.0000 </r>
       <r>    4.5572    0.0000 </r>
       <r>    5.1173    0.0000 </r>
       <r>    5.5466    0.0000 </r>
       <r>    6.6191    0.0000 </r>
       <r>    8.4070    0.0000 </r>
       <r>    8.8016    0.0000 </r>
       <r>   10.1578    0.0000 </r>
      </set>
      <set comment="kpoint 3">
       <r>  -61.5705    1.0000 </r>
       <r>  -35.7346    1.0000 </r>
       <r>  -35.5392    1.0000 </r>
       <r>  -35.5309    1.0000 </r>
       <r>  -14.7717    1.0000 </r>
       <r>  -13.4926    1.0000 </r>
       <r>   -6.2908    1.0000 </r>
       <r>   -3.4322    1.0000 </r>
       <r>   -3.2943    1.0000 </r>
       <r>   -2.7652    1.0000 </r>
       <r>   -2.2983    1.0000 </r>
       <r>   -2.0253    1.0000 </r>
       <r>   -0.7512    1.0000 </r>
       <r>    1.9689    0.0000 </r>
       <r>    2.1067    0.0000 </r>
       <r>    2.1553    0.0000 </r>
       <r>    2.2293    0.0000 </r>
       <r>    4.6128    0.0000 </r>
       <r>    5.1575    0.0000 </r>
       <r>    5.6827    0.0000 </r>
       <r>    6.6677    0.0000 </r>
       <r>    8.5506    0.0000 </r>
       <r>    8.8368    0.0000 </r>
       <r>   10.0023    0.0000 </r>
      </set>
      <set comment="kpoint 4">
       <r>  -61.5693    1.0000 </r>
       <r>  -35.7322    1.0000 </r>
       <r>  -35.5521    1.0000 </r>
       <r>  -35.5338    1.0000 </r>
       <r>  -14.7209    1.0000 </r>
       <r>  -13.4718    1.0000 </r>
       <r>   -6.2330    1.0000 </r>
       <r>   -3.5440    1.0000 </r>
       <r>   -3.2413    1.0000 </r>
       <r>   -2.9569    1.0000 </r>
       <r>   -2.3778    1.0000 </r>
       <r>   -1.9141    1.0000 </r>
       <r>   -0.7788    1.0000 </r>
       <r>    1.9102    0.0000 </r>
       <r>    2.0259    0.0000 </r>
       <r>    2.1729    0.0000 </r>
       <r>    2.1939    0.0000 </r>
       <r>    4.6970    0.0000 </r>
       <r>    5.2239    0.0000 </r>
       <r>    5.8947    0.0000 </r>
       <r>    6.7503    0.0000 </r>
       <r>    8.7661    0.0000 </r>
       <r>    8.9015    0.0000 </r>
       <r>    9.8172    0.0000 </r>
      </set>
      <set comment="kpoint 5">
       <r>  -61.5676    1.0000 </r>
       <r>  -35.7283    1.0000 </r>
       <r>  -35.5691    1.0000 </r>
       <r>  -35.5379    1.0000 </r>
       <r>  -14.6510    1.0000 </r>
       <r>  -13.4431    1.0000 </r>
       <r>   -6.1553    1.0000 </r>
       <r>   -3.6876    1.0000 </r>
       <r>   -3.1688    1.0000 </r>
       <r>   -3.1563    1.0000 </r>
       <r>   -2.4808    1.0000 </r>
       <r>   -1.8351    1.0000 </r>
       <r>   -0.8230    1.0000 </r>
       <r>    1.8576    0.0000 </r>
       <r>    1.8788    0.0000 </r>
       <r>    2.1003    0.0000 </r>
       <r>    2.3065    0.0000 </r>
       <r>    4.8041    0.0000 </r>
       <r>    5.3158    0.0000 </r>
       <r>    6.1595    0.0000 </r>
       <r>    6.8741    0.0000 </r>
       <r>    8.9338    0.0000 </r>
       <r>    9.0816    0.0000 </r>
       <r>    9.6257    0.0000 </r>
      </set>
      <set comment="kpoint 6">
       <r>  -61.5656    1.0000 </r>
       <r>  -35.7243    1.0000 </r>
       <r>  -35.5905    1.0000 </r>
       <r>  -35.5430    1.0000 </r>
       <r>  -14.5630    1.0000 </r>
       <r>  -13.4071    1.0000 </r>
       <r>   -6.0626    1.0000 </r>
       <r>   -3.8544    1.0000 </r>
       <r>   -3.3606    1.0000 </r>
       <r>   -3.0782    1.0000 </r>
       <r>   -2.6014    1.0000 </r>
       <r>   -1.7961    1.0000 </r>
       <r>   -0.8901    1.0000 </r>
       <r>    1.7328    0.0000 </r>
       <r>    1.8290    0.0000 </r>
       <r>    2.0156    0.0000 </r>
       <r>    2.4360    0.0000 </r>
       <r>    4.9313    0.0000 </r>
       <r>    5.4319    0.0000 </r>
       <r>    6.4381    0.0000 </r>
       <r>    7.0544    0.0000 </r>
       <r>    9.0191    0.0000 </r>
       <r>    9.3451    0.0000 </r>
       <r>    9.4310    0.0000 </r>
      </set>
      <set comment="kpoint 7">
       <r>  -61.5632    1.0000 </r>
       <r>  -35.7202    1.0000 </r>
       <r>  -35.6150    1.0000 </r>
       <r>  -35.5487    1.0000 </r>
       <r>  -14.4584    1.0000 </r>
       <r>  -13.3643    1.0000 </r>
       <r>   -5.9610    1.0000 </r>
       <r>   -4.0317    1.0000 </r>
       <r>   -3.5672    1.0000 </r>
       <r>   -2.9716    1.0000 </r>
       <r>   -2.7328    1.0000 </r>
       <r>   -1.8001    1.0000 </r>
       <r>   -0.9830    1.0000 </r>
       <r>    1.6073    0.0000 </r>
       <r>    1.8383    0.0000 </r>
       <r>    1.9241    0.0000 </r>
       <r>    2.5751    0.0000 </r>
       <r>    5.0780    0.0000 </r>
       <r>    5.5709    0.0000 </r>
       <r>    6.6863    0.0000 </r>
       <r>    7.3088    0.0000 </r>
       <r>    9.0756    0.0000 </r>
       <r>    9.2460    0.0000 </r>
       <r>    9.5259    0.0000 </r>
      </set>
      <set comment="kpoint 8">
       <r>  -61.5606    1.0000 </r>
       <r>  -35.7150    1.0000 </r>
       <r>  -35.6425    1.0000 </r>
       <r>  -35.5551    1.0000 </r>
       <r>  -14.3389    1.0000 </r>
       <r>  -13.3155    1.0000 </r>
       <r>   -5.8599    1.0000 </r>
       <r>   -4.2079    1.0000 </r>
       <r>   -3.7748    1.0000 </r>
       <r>   -2.8697    1.0000 </r>
       <r>   -2.8520    1.0000 </r>
       <r>   -1.8424    1.0000 </r>
       <r>   -1.1008    1.0000 </r>
       <r>    1.5146    0.0000 </r>
       <r>    1.8315    0.0000 </r>
       <r>    1.8901    0.0000 </r>
       <r>    2.7168    0.0000 </r>
       <r>    5.2434    0.0000 </r>
       <r>    5.7313    0.0000 </r>
       <r>    6.8876    0.0000 </r>
       <r>    7.6208    0.0000 </r>
       <r>    9.0405    0.0000 </r>
       <r>    9.0744    0.0000 </r>
       <r>    9.5906    0.0000 </r>
      </set>
      <set comment="kpoint 9">
       <r>  -61.5577    1.0000 </r>
       <r>  -35.7090    1.0000 </r>
       <r>  -35.6719    1.0000 </r>
       <r>  -35.5619    1.0000 </r>
       <r>  -14.2068    1.0000 </r>
       <r>  -13.2617    1.0000 </r>
       <r>   -5.7733    1.0000 </r>
       <r>   -4.3671    1.0000 </r>
       <r>   -3.9827    1.0000 </r>
       <r>   -3.0078    1.0000 </r>
       <r>   -2.7217    1.0000 </r>
       <r>   -1.9146    1.0000 </r>
       <r>   -1.2370    1.0000 </r>
       <r>    1.4597    0.0000 </r>
       <r>    1.7428    0.0000 </r>
       <r>    1.9825    0.0000 </r>
       <r>    2.8560    0.0000 </r>
       <r>    5.4267    0.0000 </r>
       <r>    5.9108    0.0000 </r>
       <r>    7.0571    0.0000 </r>
       <r>    7.9213    0.0000 </r>
       <r>    8.8659    0.0000 </r>
       <r>    8.9301    0.0000 </r>
       <r>    9.6647    0.0000 </r>
      </set>
      <set comment="kpoint 10">
       <r>  -61.5546    1.0000 </r>
       <r>  -35.7027    1.0000 </r>
       <r>  -35.7020    1.0000 </r>
       <r>  -35.5687    1.0000 </r>
       <r>  -14.0645    1.0000 </r>
       <r>  -13.2040    1.0000 </r>
       <r>   -5.7205    1.0000 </r>
       <r>   -4.4934    1.0000 </r>
       <r>   -4.1896    1.0000 </r>
       <r>   -3.1428    1.0000 </r>
       <r>   -2.5849    1.0000 </r>
       <r>   -2.0056    1.0000 </r>
       <r>   -1.3794    1.0000 </r>
       <r>    1.4426    0.0000 </r>
       <r>    1.6623    0.0000 </r>
       <r>    2.1083    0.0000 </r>
       <r>    2.9873    0.0000 </r>
       <r>    5.6264    0.0000 </r>
       <r>    6.1060    0.0000 </r>
       <r>    7.2079    0.0000 </r>
       <r>    8.1017    0.0000 </r>
       <r>    8.6190    0.0000 </r>
       <r>    8.8608    0.0000 </r>
       <r>    9.7767    0.0000 </r>
      </set>
      <set comment="kpoint 11">
       <r>  -61.5515    1.0000 </r>
       <r>  -35.7326    1.0000 </r>
       <r>  -35.6965    1.0000 </r>
       <r>  -35.5760    1.0000 </r>
       <r>  -13.9150    1.0000 </r>
       <r>  -13.1438    1.0000 </r>
       <r>   -5.7201    1.0000 </r>
       <r>   -4.5739    1.0000 </r>
       <r>   -4.3928    1.0000 </r>
       <r>   -3.2722    1.0000 </r>
       <r>   -2.4464    1.0000 </r>
       <r>   -2.1051    1.0000 </r>
       <r>   -1.5116    1.0000 </r>
       <r>    1.4579    0.0000 </r>
       <r>    1.5932    0.0000 </r>
       <r>    2.2543    0.0000 </r>
       <r>    3.1068    0.0000 </r>
       <r>    5.8394    0.0000 </r>
       <r>    6.3116    0.0000 </r>
       <r>    7.3404    0.0000 </r>
       <r>    8.0615    0.0000 </r>
       <r>    8.3683    0.0000 </r>
       <r>    8.9242    0.0000 </r>
       <r>    9.8942    0.0000 </r>
      </set>
      <set comment="kpoint 12">
       <r>  -61.5485    1.0000 </r>
       <r>  -35.7624    1.0000 </r>
       <r>  -35.6902    1.0000 </r>
       <r>  -35.5830    1.0000 </r>
       <r>  -13.7619    1.0000 </r>
       <r>  -13.0825    1.0000 </r>
       <r>   -5.7765    1.0000 </r>
       <r>   -4.6100    1.0000 </r>
       <r>   -4.5899    1.0000 </r>
       <r>   -3.3928    1.0000 </r>
       <r>   -2.3099    1.0000 </r>
       <r>   -2.2039    1.0000 </r>
       <r>   -1.6163    1.0000 </r>
       <r>    1.4996    0.0000 </r>
       <r>    1.5388    0.0000 </r>
       <r>    2.4114    0.0000 </r>
       <r>    3.2144    0.0000 </r>
       <r>    6.0610    0.0000 </r>
       <r>    6.5198    0.0000 </r>
       <r>    7.4274    0.0000 </r>
       <r>    7.8878    0.0000 </r>
       <r>    8.1500    0.0000 </r>
       <r>    9.0614    0.0000 </r>
       <r>    9.9847    0.0000 </r>
      </set>
      <set comment="kpoint 13">
       <r>  -61.5457    1.0000 </r>
       <r>  -35.7912    1.0000 </r>
       <r>  -35.6846    1.0000 </r>
       <r>  -35.5900    1.0000 </r>
       <r>  -13.6089    1.0000 </r>
       <r>  -13.0218    1.0000 </r>
       <r>   -5.8761    1.0000 </r>
       <r>   -4.7784    1.0000 </r>
       <r>   -4.6223    1.0000 </r>
       <r>   -3.5036    1.0000 </r>
       <r>   -2.2964    1.0000 </r>
       <r>   -2.1799    1.0000 </r>
       <r>   -1.6792    1.0000 </r>
       <r>    1.4996    0.0000 </r>
       <r>    1.5608    0.0000 </r>
       <r>    2.5687    0.0000 </r>
       <r>    3.3058    0.0000 </r>
       <r>    6.2811    0.0000 </r>
       <r>    6.7178    0.0000 </r>
       <r>    7.3353    0.0000 </r>
       <r>    7.8186    0.0000 </r>
       <r>    7.9894    0.0000 </r>
       <r>    9.2129    0.0000 </r>
       <r>   10.0196    0.0000 </r>
      </set>
      <set comment="kpoint 14">
       <r>  -61.5431    1.0000 </r>
       <r>  -35.8177    1.0000 </r>
       <r>  -35.6796    1.0000 </r>
       <r>  -35.5964    1.0000 </r>
       <r>  -13.4605    1.0000 </r>
       <r>  -12.9636    1.0000 </r>
       <r>   -5.9979    1.0000 </r>
       <r>   -4.9531    1.0000 </r>
       <r>   -4.6333    1.0000 </r>
       <r>   -3.6025    1.0000 </r>
       <r>   -2.3789    1.0000 </r>
       <r>   -2.0606    1.0000 </r>
       <r>   -1.6927    1.0000 </r>
       <r>    1.4768    0.0000 </r>
       <r>    1.6359    0.0000 </r>
       <r>    2.7170    0.0000 </r>
       <r>    3.3830    0.0000 </r>
       <r>    6.4688    0.0000 </r>
       <r>    6.8856    0.0000 </r>
       <r>    7.0726    0.0000 </r>
       <r>    7.9062    0.0000 </r>
       <r>    7.9279    0.0000 </r>
       <r>    9.3605    0.0000 </r>
       <r>    9.9887    0.0000 </r>
      </set>
      <set comment="kpoint 15">
       <r>  -61.5407    1.0000 </r>
       <r>  -35.8412    1.0000 </r>
       <r>  -35.6748    1.0000 </r>
       <r>  -35.6020    1.0000 </r>
       <r>  -13.3216    1.0000 </r>
       <r>  -12.9098    1.0000 </r>
       <r>   -6.1242    1.0000 </r>
       <r>   -5.1097    1.0000 </r>
       <r>   -4.6547    1.0000 </r>
       <r>   -3.6876    1.0000 </r>
       <r>   -2.4485    1.0000 </r>
       <r>   -1.9556    1.0000 </r>
       <r>   -1.6592    1.0000 </r>
       <r>    1.4690    0.0000 </r>
       <r>    1.7192    0.0000 </r>
       <r>    2.8489    0.0000 </r>
       <r>    3.4466    0.0000 </r>
       <r>    6.4690    0.0000 </r>
       <r>    6.9404    0.0000 </r>
       <r>    7.0066    0.0000 </r>
       <r>    7.9148    0.0000 </r>
       <r>    8.1055    0.0000 </r>
       <r>    9.4874    0.0000 </r>
       <r>    9.9096    0.0000 </r>
      </set>
      <set comment="kpoint 16">
       <r>  -61.5385    1.0000 </r>
       <r>  -35.8610    1.0000 </r>
       <r>  -35.6704    1.0000 </r>
       <r>  -35.6065    1.0000 </r>
       <r>  -13.1975    1.0000 </r>
       <r>  -12.8622    1.0000 </r>
       <r>   -6.2429    1.0000 </r>
       <r>   -5.2445    1.0000 </r>
       <r>   -4.6876    1.0000 </r>
       <r>   -3.7582    1.0000 </r>
       <r>   -2.5046    1.0000 </r>
       <r>   -1.8676    1.0000 </r>
       <r>   -1.5914    1.0000 </r>
       <r>    1.4732    0.0000 </r>
       <r>    1.8053    0.0000 </r>
       <r>    2.9602    0.0000 </r>
       <r>    3.4970    0.0000 </r>
       <r>    6.2050    0.0000 </r>
       <r>    7.0641    0.0000 </r>
       <r>    7.0830    0.0000 </r>
       <r>    7.9974    0.0000 </r>
       <r>    8.3236    0.0000 </r>
       <r>    9.5627    0.0000 </r>
       <r>    9.8140    0.0000 </r>
      </set>
      <set comment="kpoint 17">
       <r>  -61.5369    1.0000 </r>
       <r>  -35.8777    1.0000 </r>
       <r>  -35.6669    1.0000 </r>
       <r>  -35.6104    1.0000 </r>
       <r>  -13.0937    1.0000 </r>
       <r>  -12.8230    1.0000 </r>
       <r>   -6.3449    1.0000 </r>
       <r>   -5.3543    1.0000 </r>
       <r>   -4.7254    1.0000 </r>
       <r>   -3.8141    1.0000 </r>
       <r>   -2.5477    1.0000 </r>
       <r>   -1.7988    1.0000 </r>
       <r>   -1.5085    1.0000 </r>
       <r>    1.4842    0.0000 </r>
       <r>    1.8867    0.0000 </r>
       <r>    3.0445    0.0000 </r>
       <r>    3.5346    0.0000 </r>
       <r>    5.9121    0.0000 </r>
       <r>    7.1350    0.0000 </r>
       <r>    7.2314    0.0000 </r>
       <r>    8.1062    0.0000 </r>
       <r>    8.5674    0.0000 </r>
       <r>    9.5746    0.0000 </r>
       <r>    9.7317    0.0000 </r>
      </set>
      <set comment="kpoint 18">
       <r>  -61.5357    1.0000 </r>
       <r>  -35.8895    1.0000 </r>
       <r>  -35.6648    1.0000 </r>
       <r>  -35.6133    1.0000 </r>
       <r>  -13.0151    1.0000 </r>
       <r>  -12.7936    1.0000 </r>
       <r>   -6.4227    1.0000 </r>
       <r>   -5.4351    1.0000 </r>
       <r>   -4.7599    1.0000 </r>
       <r>   -3.8546    1.0000 </r>
       <r>   -2.5782    1.0000 </r>
       <r>   -1.7495    1.0000 </r>
       <r>   -1.4306    1.0000 </r>
       <r>    1.4975    0.0000 </r>
       <r>    1.9559    0.0000 </r>
       <r>    3.1035    0.0000 </r>
       <r>    3.5602    0.0000 </r>
       <r>    5.6701    0.0000 </r>
       <r>    7.1786    0.0000 </r>
       <r>    7.3797    0.0000 </r>
       <r>    8.1977    0.0000 </r>
       <r>    8.7970    0.0000 </r>
       <r>    9.5773    0.0000 </r>
       <r>    9.6866    0.0000 </r>
      </set>
      <set comment="kpoint 19">
       <r>  -61.5350    1.0000 </r>
       <r>  -35.8971    1.0000 </r>
       <r>  -35.6632    1.0000 </r>
       <r>  -35.6152    1.0000 </r>
       <r>  -12.9660    1.0000 </r>
       <r>  -12.7754    1.0000 </r>
       <r>   -6.4718    1.0000 </r>
       <r>   -5.4848    1.0000 </r>
       <r>   -4.7835    1.0000 </r>
       <r>   -3.8794    1.0000 </r>
       <r>   -2.5962    1.0000 </r>
       <r>   -1.7200    1.0000 </r>
       <r>   -1.3758    1.0000 </r>
       <r>    1.5073    0.0000 </r>
       <r>    2.0032    0.0000 </r>
       <r>    3.1376    0.0000 </r>
       <r>    3.5753    0.0000 </r>
       <r>    5.5105    0.0000 </r>
       <r>    7.2120    0.0000 </r>
       <r>    7.4831    0.0000 </r>
       <r>    8.2494    0.0000 </r>
       <r>    8.9365    0.0000 </r>
       <r>    9.6754    0.0000 </r>
       <r>    9.6770    0.0000 </r>
      </set>
      <set comment="kpoint 20">
       <r>  -61.5346    1.0000 </r>
       <r>  -35.8991    1.0000 </r>
       <r>  -35.6626    1.0000 </r>
       <r>  -35.6154    1.0000 </r>
       <r>  -12.9493    1.0000 </r>
       <r>  -12.7692    1.0000 </r>
       <r>   -6.4880    1.0000 </r>
       <r>   -5.5014    1.0000 </r>
       <r>   -4.7916    1.0000 </r>
       <r>   -3.8875    1.0000 </r>
       <r>   -2.6018    1.0000 </r>
       <r>   -1.7092    1.0000 </r>
       <r>   -1.3555    1.0000 </r>
       <r>    1.5113    0.0000 </r>
       <r>    2.0206    0.0000 </r>
       <r>    3.1499    0.0000 </r>
       <r>    3.5805    0.0000 </r>
       <r>    5.4560    0.0000 </r>
       <r>    7.2254    0.0000 </r>
       <r>    7.5229    0.0000 </r>
       <r>    8.2655    0.0000 </r>
       <r>    8.9721    0.0000 </r>
       <r>    9.6792    0.0000 </r>
       <r>    9.7996    0.0000 </r>
      </set>
      <set comment="kpoint 21">
       <r>  -61.5346    1.0000 </r>
       <r>  -35.8991    1.0000 </r>
       <r>  -35.6626    1.0000 </r>
       <r>  -35.6154    1.0000 </r>
       <r>  -12.9493    1.0000 </r>
       <r>  -12.7692    1.0000 </r>
       <r>   -6.4880    1.0000 </r>
       <r>   -5.5014    1.0000 </r>
       <r>   -4.7916    1.0000 </r>
       <r>   -3.8875    1.0000 </r>
       <r>   -2.6018    1.0000 </r>
       <r>   -1.7092    1.0000 </r>
       <r>   -1.3555    1.0000 </r>
       <r>    1.5113    0.0000 </r>
       <r>    2.0206    0.0000 </r>
       <r>    3.1499    0.0000 </r>
       <r>    3.5805    0.0000 </r>
       <r>    5.4560    0.0000 </r>
       <r>    7.2254    0.0000 </r>
       <r>    7.5229    0.0000 </r>
       <r>    8.2655    0.0000 </r>
       <r>    8.9721    0.0000 </r>
       <r>    9.6792    0.0000 </r>
       <r>    9.7996    0.0000 </r>
      </set>
      <set comment="kpoint 22">
       <r>  -61.5346    1.0000 </r>
       <r>  -35.8987    1.0000 </r>
       <r>  -35.6625    1.0000 </r>
       <r>  -35.6165    1.0000 </r>
       <r>  -12.9478    1.0000 </r>
       <r>  -12.7682    1.0000 </r>
       <r>   -6.4834    1.0000 </r>
       <r>   -5.5051    1.0000 </r>
       <r>   -4.7902    1.0000 </r>
       <r>   -3.8884    1.0000 </r>
       <r>   -2.6008    1.0000 </r>
       <r>   -1.7440    1.0000 </r>
       <r>   -1.3379    1.0000 </r>
       <r>    1.5130    0.0000 </r>
       <r>    2.0221    0.0000 </r>
       <r>    3.1561    0.0000 </r>
       <r>    3.5663    0.0000 </r>
       <r>    5.4609    0.0000 </r>
       <r>    7.2491    0.0000 </r>
       <r>    7.5371    0.0000 </r>
       <r>    8.2680    0.0000 </r>
       <r>    8.9771    0.0000 </r>
       <r>    9.6825    0.0000 </r>
       <r>    9.8021    0.0000 </r>
      </set>
      <set comment="kpoint 23">
       <r>  -61.5345    1.0000 </r>
       <r>  -35.8977    1.0000 </r>
       <r>  -35.6621    1.0000 </r>
       <r>  -35.6185    1.0000 </r>
       <r>  -12.9432    1.0000 </r>
       <r>  -12.7654    1.0000 </r>
       <r>   -6.4698    1.0000 </r>
       <r>   -5.5160    1.0000 </r>
       <r>   -4.7852    1.0000 </r>
       <r>   -3.8906    1.0000 </r>
       <r>   -2.5977    1.0000 </r>
       <r>   -1.8301    1.0000 </r>
       <r>   -1.2982    1.0000 </r>
       <r>    1.5177    0.0000 </r>
       <r>    2.0272    0.0000 </r>
       <r>    3.1743    0.0000 </r>
       <r>    3.5261    0.0000 </r>
       <r>    5.4776    0.0000 </r>
       <r>    7.3190    0.0000 </r>
       <r>    7.5804    0.0000 </r>
       <r>    8.2754    0.0000 </r>
       <r>    8.9962    0.0000 </r>
       <r>    9.6926    0.0000 </r>
       <r>    9.8086    0.0000 </r>
      </set>
      <set comment="kpoint 24">
       <r>  -61.5343    1.0000 </r>
       <r>  -35.8961    1.0000 </r>
       <r>  -35.6618    1.0000 </r>
       <r>  -35.6215    1.0000 </r>
       <r>  -12.9358    1.0000 </r>
       <r>  -12.7608    1.0000 </r>
       <r>   -6.4474    1.0000 </r>
       <r>   -5.5341    1.0000 </r>
       <r>   -4.7773    1.0000 </r>
       <r>   -3.8932    1.0000 </r>
       <r>   -2.5937    1.0000 </r>
       <r>   -1.9489    1.0000 </r>
       <r>   -1.2541    1.0000 </r>
       <r>    1.5236    0.0000 </r>
       <r>    2.0368    0.0000 </r>
       <r>    3.2017    0.0000 </r>
       <r>    3.4650    0.0000 </r>
       <r>    5.5052    0.0000 </r>
       <r>    7.4320    0.0000 </r>
       <r>    7.6512    0.0000 </r>
       <r>    8.2876    0.0000 </r>
       <r>    9.0281    0.0000 </r>
       <r>    9.7091    0.0000 </r>
       <r>    9.8137    0.0000 </r>
      </set>
      <set comment="kpoint 25">
       <r>  -61.5342    1.0000 </r>
       <r>  -35.8937    1.0000 </r>
       <r>  -35.6616    1.0000 </r>
       <r>  -35.6268    1.0000 </r>
       <r>  -12.9255    1.0000 </r>
       <r>  -12.7544    1.0000 </r>
       <r>   -6.4160    1.0000 </r>
       <r>   -5.5592    1.0000 </r>
       <r>   -4.7669    1.0000 </r>
       <r>   -3.8965    1.0000 </r>
       <r>   -2.5893    1.0000 </r>
       <r>   -2.0913    1.0000 </r>
       <r>   -1.2139    1.0000 </r>
       <r>    1.5267    0.0000 </r>
       <r>    2.0530    0.0000 </r>
       <r>    3.2295    0.0000 </r>
       <r>    3.3959    0.0000 </r>
       <r>    5.5409    0.0000 </r>
       <r>    7.5797    0.0000 </r>
       <r>    7.7469    0.0000 </r>
       <r>    8.3047    0.0000 </r>
       <r>    9.0671    0.0000 </r>
       <r>    9.7319    0.0000 </r>
       <r>    9.7962    0.0000 </r>
      </set>
      <set comment="kpoint 26">
       <r>  -61.5339    1.0000 </r>
       <r>  -35.8905    1.0000 </r>
       <r>  -35.6608    1.0000 </r>
       <r>  -35.6326    1.0000 </r>
       <r>  -12.9126    1.0000 </r>
       <r>  -12.7464    1.0000 </r>
       <r>   -6.3758    1.0000 </r>
       <r>   -5.5909    1.0000 </r>
       <r>   -4.7536    1.0000 </r>
       <r>   -3.8976    1.0000 </r>
       <r>   -2.5853    1.0000 </r>
       <r>   -2.2495    1.0000 </r>
       <r>   -1.1784    1.0000 </r>
       <r>    1.5245    0.0000 </r>
       <r>    2.0780    0.0000 </r>
       <r>    3.2166    0.0000 </r>
       <r>    3.3673    0.0000 </r>
       <r>    5.5852    0.0000 </r>
       <r>    7.7640    0.0000 </r>
       <r>    7.8657    0.0000 </r>
       <r>    8.3281    0.0000 </r>
       <r>    9.1063    0.0000 </r>
       <r>    9.7204    0.0000 </r>
       <r>    9.7611    0.0000 </r>
      </set>
      <set comment="kpoint 27">
       <r>  -61.5337    1.0000 </r>
       <r>  -35.8871    1.0000 </r>
       <r>  -35.6604    1.0000 </r>
       <r>  -35.6400    1.0000 </r>
       <r>  -12.8974    1.0000 </r>
       <r>  -12.7371    1.0000 </r>
       <r>   -6.3274    1.0000 </r>
       <r>   -5.6287    1.0000 </r>
       <r>   -4.7382    1.0000 </r>
       <r>   -3.8959    1.0000 </r>
       <r>   -2.5844    1.0000 </r>
       <r>   -2.4210    1.0000 </r>
       <r>   -1.1476    1.0000 </r>
       <r>    1.5133    0.0000 </r>
       <r>    2.1130    0.0000 </r>
       <r>    3.1364    0.0000 </r>
       <r>    3.4065    0.0000 </r>
       <r>    5.6353    0.0000 </r>
       <r>    7.9689    0.0000 </r>
       <r>    8.0008    0.0000 </r>
       <r>    8.3557    0.0000 </r>
       <r>    9.1170    0.0000 </r>
       <r>    9.6237    0.0000 </r>
       <r>    9.7964    0.0000 </r>
      </set>
      <set comment="kpoint 28">
       <r>  -61.5333    1.0000 </r>
       <r>  -35.8827    1.0000 </r>
       <r>  -35.6598    1.0000 </r>
       <r>  -35.6481    1.0000 </r>
       <r>  -12.8801    1.0000 </r>
       <r>  -12.7264    1.0000 </r>
       <r>   -6.2708    1.0000 </r>
       <r>   -5.6715    1.0000 </r>
       <r>   -4.7210    1.0000 </r>
       <r>   -3.8900    1.0000 </r>
       <r>   -2.6025    1.0000 </r>
       <r>   -2.5869    1.0000 </r>
       <r>   -1.1192    1.0000 </r>
       <r>    1.4925    0.0000 </r>
       <r>    2.1583    0.0000 </r>
       <r>    3.0353    0.0000 </r>
       <r>    3.4716    0.0000 </r>
       <r>    5.6922    0.0000 </r>
       <r>    8.1463    0.0000 </r>
       <r>    8.1945    0.0000 </r>
       <r>    8.3936    0.0000 </r>
       <r>    9.0501    0.0000 </r>
       <r>    9.5959    0.0000 </r>
       <r>    9.8377    0.0000 </r>
      </set>
      <set comment="kpoint 29">
       <r>  -61.5329    1.0000 </r>
       <r>  -35.8778    1.0000 </r>
       <r>  -35.6590    1.0000 </r>
       <r>  -35.6570    1.0000 </r>
       <r>  -12.8610    1.0000 </r>
       <r>  -12.7148    1.0000 </r>
       <r>   -6.2064    1.0000 </r>
       <r>   -5.7183    1.0000 </r>
       <r>   -4.7025    1.0000 </r>
       <r>   -3.8794    1.0000 </r>
       <r>   -2.7911    1.0000 </r>
       <r>   -2.5938    1.0000 </r>
       <r>   -1.0915    1.0000 </r>
       <r>    1.4615    0.0000 </r>
       <r>    2.2132    0.0000 </r>
       <r>    2.9315    0.0000 </r>
       <r>    3.5464    0.0000 </r>
       <r>    5.7548    0.0000 </r>
       <r>    8.2911    0.0000 </r>
       <r>    8.3820    0.0000 </r>
       <r>    8.4877    0.0000 </r>
       <r>    8.9072    0.0000 </r>
       <r>    9.6643    0.0000 </r>
       <r>    9.8849    0.0000 </r>
      </set>
      <set comment="kpoint 30">
       <r>  -61.5325    1.0000 </r>
       <r>  -35.8720    1.0000 </r>
       <r>  -35.6673    1.0000 </r>
       <r>  -35.6583    1.0000 </r>
       <r>  -12.8407    1.0000 </r>
       <r>  -12.7025    1.0000 </r>
       <r>   -6.1345    1.0000 </r>
       <r>   -5.7681    1.0000 </r>
       <r>   -4.6837    1.0000 </r>
       <r>   -3.8642    1.0000 </r>
       <r>   -2.9841    1.0000 </r>
       <r>   -2.6059    1.0000 </r>
       <r>   -1.0635    1.0000 </r>
       <r>    1.4207    0.0000 </r>
       <r>    2.2758    0.0000 </r>
       <r>    2.8308    0.0000 </r>
       <r>    3.6255    0.0000 </r>
       <r>    5.8220    0.0000 </r>
       <r>    8.3973    0.0000 </r>
       <r>    8.4473    0.0000 </r>
       <r>    8.7181    0.0000 </r>
       <r>    8.7600    0.0000 </r>
       <r>    9.7832    0.0000 </r>
       <r>    9.9376    0.0000 </r>
      </set>
      <set comment="kpoint 31">
       <r>  -61.5321    1.0000 </r>
       <r>  -35.8660    1.0000 </r>
       <r>  -35.6781    1.0000 </r>
       <r>  -35.6575    1.0000 </r>
       <r>  -12.8195    1.0000 </r>
       <r>  -12.6897    1.0000 </r>
       <r>   -6.0562    1.0000 </r>
       <r>   -5.8194    1.0000 </r>
       <r>   -4.6649    1.0000 </r>
       <r>   -3.8437    1.0000 </r>
       <r>   -3.1791    1.0000 </r>
       <r>   -2.6239    1.0000 </r>
       <r>   -1.0338    1.0000 </r>
       <r>    1.3713    0.0000 </r>
       <r>    2.3436    0.0000 </r>
       <r>    2.7364    0.0000 </r>
       <r>    3.7057    0.0000 </r>
       <r>    5.8931    0.0000 </r>
       <r>    8.3476    0.0000 </r>
       <r>    8.4966    0.0000 </r>
       <r>    8.7528    0.0000 </r>
       <r>    8.9776    0.0000 </r>
       <r>    9.9288    0.0000 </r>
       <r>    9.9958    0.0000 </r>
      </set>
      <set comment="kpoint 32">
       <r>  -61.5317    1.0000 </r>
       <r>  -35.8595    1.0000 </r>
       <r>  -35.6894    1.0000 </r>
       <r>  -35.6568    1.0000 </r>
       <r>  -12.7980    1.0000 </r>
       <r>  -12.6769    1.0000 </r>
       <r>   -5.9717    1.0000 </r>
       <r>   -5.8708    1.0000 </r>
       <r>   -4.6471    1.0000 </r>
       <r>   -3.8182    1.0000 </r>
       <r>   -3.3729    1.0000 </r>
       <r>   -2.6476    1.0000 </r>
       <r>   -1.0012    1.0000 </r>
       <r>    1.3152    0.0000 </r>
       <r>    2.4146    0.0000 </r>
       <r>    2.6506    0.0000 </r>
       <r>    3.7847    0.0000 </r>
       <r>    5.9683    0.0000 </r>
       <r>    8.1666    0.0000 </r>
       <r>    8.5476    0.0000 </r>
       <r>    8.8692    0.0000 </r>
       <r>    9.2443    0.0000 </r>
       <r>   10.0595    0.0000 </r>
       <r>   10.0829    0.0000 </r>
      </set>
      <set comment="kpoint 33">
       <r>  -61.5314    1.0000 </r>
       <r>  -35.8526    1.0000 </r>
       <r>  -35.7015    1.0000 </r>
       <r>  -35.6560    1.0000 </r>
       <r>  -12.7766    1.0000 </r>
       <r>  -12.6642    1.0000 </r>
       <r>   -5.9207    1.0000 </r>
       <r>   -5.8817    1.0000 </r>
       <r>   -4.6324    1.0000 </r>
       <r>   -3.7884    1.0000 </r>
       <r>   -3.5632    1.0000 </r>
       <r>   -2.6768    1.0000 </r>
       <r>   -0.9655    1.0000 </r>
       <r>    1.2543    0.0000 </r>
       <r>    2.4864    0.0000 </r>
       <r>    2.5749    0.0000 </r>
       <r>    3.8598    0.0000 </r>
       <r>    6.0467    0.0000 </r>
       <r>    7.9586    0.0000 </r>
       <r>    8.6016    0.0000 </r>
       <r>    9.0097    0.0000 </r>
       <r>    9.5114    0.0000 </r>
       <r>   10.1293    0.0000 </r>
       <r>   10.2312    0.0000 </r>
      </set>
      <set comment="kpoint 34">
       <r>  -61.5310    1.0000 </r>
       <r>  -35.8453    1.0000 </r>
       <r>  -35.7135    1.0000 </r>
       <r>  -35.6549    1.0000 </r>
       <r>  -12.7560    1.0000 </r>
       <r>  -12.6521    1.0000 </r>
       <r>   -5.9678    1.0000 </r>
       <r>   -5.7873    1.0000 </r>
       <r>   -4.6211    1.0000 </r>
       <r>   -3.7555    1.0000 </r>
       <r>   -3.7443    1.0000 </r>
       <r>   -2.7102    1.0000 </r>
       <r>   -0.9268    1.0000 </r>
       <r>    1.1909    0.0000 </r>
       <r>    2.5101    0.0000 </r>
       <r>    2.5570    0.0000 </r>
       <r>    3.9290    0.0000 </r>
       <r>    6.1287    0.0000 </r>
       <r>    7.7506    0.0000 </r>
       <r>    8.6587    0.0000 </r>
       <r>    9.1527    0.0000 </r>
       <r>    9.7714    0.0000 </r>
       <r>   10.2076    0.0000 </r>
       <r>   10.3682    0.0000 </r>
      </set>
      <set comment="kpoint 35">
       <r>  -61.5307    1.0000 </r>
       <r>  -35.8377    1.0000 </r>
       <r>  -35.7254    1.0000 </r>
       <r>  -35.6544    1.0000 </r>
       <r>  -12.7367    1.0000 </r>
       <r>  -12.6410    1.0000 </r>
       <r>   -6.0110    1.0000 </r>
       <r>   -5.6896    1.0000 </r>
       <r>   -4.6177    1.0000 </r>
       <r>   -3.9119    1.0000 </r>
       <r>   -3.7205    1.0000 </r>
       <r>   -2.7473    1.0000 </r>
       <r>   -0.8863    1.0000 </r>
       <r>    1.1274    0.0000 </r>
       <r>    2.4566    0.0000 </r>
       <r>    2.6238    0.0000 </r>
       <r>    3.9899    0.0000 </r>
       <r>    6.2126    0.0000 </r>
       <r>    7.5480    0.0000 </r>
       <r>    8.7162    0.0000 </r>
       <r>    9.2913    0.0000 </r>
       <r>   10.0096    0.0000 </r>
       <r>   10.3034    0.0000 </r>
       <r>   10.4943    0.0000 </r>
      </set>
      <set comment="kpoint 36">
       <r>  -61.5305    1.0000 </r>
       <r>  -35.8302    1.0000 </r>
       <r>  -35.7370    1.0000 </r>
       <r>  -35.6540    1.0000 </r>
       <r>  -12.7195    1.0000 </r>
       <r>  -12.6312    1.0000 </r>
       <r>   -6.0486    1.0000 </r>
       <r>   -5.5909    1.0000 </r>
       <r>   -4.6268    1.0000 </r>
       <r>   -4.0577    1.0000 </r>
       <r>   -3.6851    1.0000 </r>
       <r>   -2.7858    1.0000 </r>
       <r>   -0.8460    1.0000 </r>
       <r>    1.0670    0.0000 </r>
       <r>    2.4144    0.0000 </r>
       <r>    2.6843    0.0000 </r>
       <r>    4.0410    0.0000 </r>
       <r>    6.2960    0.0000 </r>
       <r>    7.3600    0.0000 </r>
       <r>    8.7737    0.0000 </r>
       <r>    9.4221    0.0000 </r>
       <r>   10.1926    0.0000 </r>
       <r>   10.4409    0.0000 </r>
       <r>   10.6107    0.0000 </r>
      </set>
      <set comment="kpoint 37">
       <r>  -61.5303    1.0000 </r>
       <r>  -35.8226    1.0000 </r>
       <r>  -35.7474    1.0000 </r>
       <r>  -35.6534    1.0000 </r>
       <r>  -12.7049    1.0000 </r>
       <r>  -12.6230    1.0000 </r>
       <r>   -6.0792    1.0000 </r>
       <r>   -5.4939    1.0000 </r>
       <r>   -4.6555    1.0000 </r>
       <r>   -4.1704    1.0000 </r>
       <r>   -3.6511    1.0000 </r>
       <r>   -2.8225    1.0000 </r>
       <r>   -0.8081    1.0000 </r>
       <r>    1.0134    0.0000 </r>
       <r>    2.3842    0.0000 </r>
       <r>    2.7363    0.0000 </r>
       <r>    4.0818    0.0000 </r>
       <r>    6.3795    0.0000 </r>
       <r>    7.1927    0.0000 </r>
       <r>    8.8279    0.0000 </r>
       <r>    9.5416    0.0000 </r>
       <r>   10.3051    0.0000 </r>
       <r>   10.6282    0.0000 </r>
       <r>   10.7152    0.0000 </r>
      </set>
      <set comment="kpoint 38">
       <r>  -61.5302    1.0000 </r>
       <r>  -35.8158    1.0000 </r>
       <r>  -35.7568    1.0000 </r>
       <r>  -35.6533    1.0000 </r>
       <r>  -12.6936    1.0000 </r>
       <r>  -12.6168    1.0000 </r>
       <r>   -6.1023    1.0000 </r>
       <r>   -5.4054    1.0000 </r>
       <r>   -4.7053    1.0000 </r>
       <r>   -4.2423    1.0000 </r>
       <r>   -3.6225    1.0000 </r>
       <r>   -2.8542    1.0000 </r>
       <r>   -0.7768    1.0000 </r>
       <r>    0.9703    0.0000 </r>
       <r>    2.3632    0.0000 </r>
       <r>    2.7763    0.0000 </r>
       <r>    4.1107    0.0000 </r>
       <r>    6.4556    0.0000 </r>
       <r>    7.0508    0.0000 </r>
       <r>    8.8734    0.0000 </r>
       <r>    9.6414    0.0000 </r>
       <r>   10.3765    0.0000 </r>
       <r>   10.7983    0.0000 </r>
       <r>   10.8115    0.0000 </r>
      </set>
      <set comment="kpoint 39">
       <r>  -61.5300    1.0000 </r>
       <r>  -35.8105    1.0000 </r>
       <r>  -35.7634    1.0000 </r>
       <r>  -35.6532    1.0000 </r>
       <r>  -12.6864    1.0000 </r>
       <r>  -12.6129    1.0000 </r>
       <r>   -6.1167    1.0000 </r>
       <r>   -5.3371    1.0000 </r>
       <r>   -4.7591    1.0000 </r>
       <r>   -4.2768    1.0000 </r>
       <r>   -3.6027    1.0000 </r>
       <r>   -2.8766    1.0000 </r>
       <r>   -0.7550    1.0000 </r>
       <r>    0.9422    0.0000 </r>
       <r>    2.3509    0.0000 </r>
       <r>    2.8022    0.0000 </r>
       <r>    4.1275    0.0000 </r>
       <r>    6.5151    0.0000 </r>
       <r>    6.9522    0.0000 </r>
       <r>    8.9041    0.0000 </r>
       <r>    9.7122    0.0000 </r>
       <r>   10.4206    0.0000 </r>
       <r>   10.8480    0.0000 </r>
       <r>   10.9501    0.0000 </r>
      </set>
      <set comment="kpoint 40">
       <r>  -61.5300    1.0000 </r>
       <r>  -35.8085    1.0000 </r>
       <r>  -35.7661    1.0000 </r>
       <r>  -35.6532    1.0000 </r>
       <r>  -12.6839    1.0000 </r>
       <r>  -12.6115    1.0000 </r>
       <r>   -6.1218    1.0000 </r>
       <r>   -5.3104    1.0000 </r>
       <r>   -4.7840    1.0000 </r>
       <r>   -4.2859    1.0000 </r>
       <r>   -3.5956    1.0000 </r>
       <r>   -2.8848    1.0000 </r>
       <r>   -0.7473    1.0000 </r>
       <r>    0.9323    0.0000 </r>
       <r>    2.3472    0.0000 </r>
       <r>    2.8113    0.0000 </r>
       <r>    4.1330    0.0000 </r>
       <r>    6.5374    0.0000 </r>
       <r>    6.9153    0.0000 </r>
       <r>    8.9154    0.0000 </r>
       <r>    9.7386    0.0000 </r>
       <r>   10.4364    0.0000 </r>
       <r>   10.8623    0.0000 </r>
       <r>   11.0026    0.0000 </r>
      </set>
      <set comment="kpoint 41">
       <r>  -61.5300    1.0000 </r>
       <r>  -35.8085    1.0000 </r>
       <r>  -35.7661    1.0000 </r>
       <r>  -35.6532    1.0000 </r>
       <r>  -12.6839    1.0000 </r>
       <r>  -12.6115    1.0000 </r>
       <r>   -6.1218    1.0000 </r>
       <r>   -5.3104    1.0000 </r>
       <r>   -4.7840    1.0000 </r>
       <r>   -4.2859    1.0000 </r>
       <r>   -3.5956    1.0000 </r>
       <r>   -2.8848    1.0000 </r>
       <r>   -0.7473    1.0000 </r>
       <r>    0.9323    0.0000 </r>
       <r>    2.3472    0.0000 </r>
       <r>    2.8113    0.0000 </r>
       <r>    4.1330    0.0000 </r>
       <r>    6.5374    0.0000 </r>
       <r>    6.9153    0.0000 </r>
       <r>    8.9154    0.0000 </r>
       <r>    9.7386    0.0000 </r>
       <r>   10.4364    0.0000 </r>
       <r>   10.8616    0.0000 </r>
       <r>   10.9991    0.0000 </r>
      </set>
      <set comment="kpoint 42">
       <r>  -61.5301    1.0000 </r>
       <r>  -35.8146    1.0000 </r>
       <r>  -35.7573    1.0000 </r>
       <r>  -35.6530    1.0000 </r>
       <r>  -12.6952    1.0000 </r>
       <r>  -12.6173    1.0000 </r>
       <r>   -6.1006    1.0000 </r>
       <r>   -5.4008    1.0000 </r>
       <r>   -4.6899    1.0000 </r>
       <r>   -4.2608    1.0000 </r>
       <r>   -3.6251    1.0000 </r>
       <r>   -2.8496    1.0000 </r>
       <r>   -0.7809    1.0000 </r>
       <r>    0.9730    0.0000 </r>
       <r>    2.3589    0.0000 </r>
       <r>    2.7720    0.0000 </r>
       <r>    4.1137    0.0000 </r>
       <r>    6.4959    0.0000 </r>
       <r>    7.0185    0.0000 </r>
       <r>    8.8633    0.0000 </r>
       <r>    9.6233    0.0000 </r>
       <r>   10.3598    0.0000 </r>
       <r>   10.8031    0.0000 </r>
       <r>   10.9314    0.0000 </r>
      </set>
      <set comment="kpoint 43">
       <r>  -61.5306    1.0000 </r>
       <r>  -35.8244    1.0000 </r>
       <r>  -35.7403    1.0000 </r>
       <r>  -35.6541    1.0000 </r>
       <r>  -12.7318    1.0000 </r>
       <r>  -12.6354    1.0000 </r>
       <r>   -6.0365    1.0000 </r>
       <r>   -5.5594    1.0000 </r>
       <r>   -4.5214    1.0000 </r>
       <r>   -4.1871    1.0000 </r>
       <r>   -3.7018    1.0000 </r>
       <r>   -2.7550    1.0000 </r>
       <r>   -0.8753    1.0000 </r>
       <r>    1.0839    0.0000 </r>
       <r>    2.3827    0.0000 </r>
       <r>    2.6535    0.0000 </r>
       <r>    4.0613    0.0000 </r>
       <r>    6.4827    0.0000 </r>
       <r>    7.2034    0.0000 </r>
       <r>    8.7045    0.0000 </r>
       <r>    9.3300    0.0000 </r>
       <r>   10.1145    0.0000 </r>
       <r>   10.5641    0.0000 </r>
       <r>   10.8926    0.0000 </r>
      </set>
      <set comment="kpoint 44">
       <r>  -61.5317    1.0000 </r>
       <r>  -35.8315    1.0000 </r>
       <r>  -35.7210    1.0000 </r>
       <r>  -35.6566    1.0000 </r>
       <r>  -12.7962    1.0000 </r>
       <r>  -12.6660    1.0000 </r>
       <r>   -5.9279    1.0000 </r>
       <r>   -5.6976    1.0000 </r>
       <r>   -4.4009    1.0000 </r>
       <r>   -4.0350    1.0000 </r>
       <r>   -3.7979    1.0000 </r>
       <r>   -2.6251    1.0000 </r>
       <r>   -1.0076    1.0000 </r>
       <r>    1.2297    0.0000 </r>
       <r>    2.4015    0.0000 </r>
       <r>    2.4693    0.0000 </r>
       <r>    3.9909    0.0000 </r>
       <r>    6.5516    0.0000 </r>
       <r>    7.4034    0.0000 </r>
       <r>    8.4714    0.0000 </r>
       <r>    8.9728    0.0000 </r>
       <r>    9.7883    0.0000 </r>
       <r>   10.2352    0.0000 </r>
       <r>   10.8698    0.0000 </r>
      </set>
      <set comment="kpoint 45">
       <r>  -61.5331    1.0000 </r>
       <r>  -35.8332    1.0000 </r>
       <r>  -35.7008    1.0000 </r>
       <r>  -35.6597    1.0000 </r>
       <r>  -12.8892    1.0000 </r>
       <r>  -12.7086    1.0000 </r>
       <r>   -5.7911    1.0000 </r>
       <r>   -5.7754    1.0000 </r>
       <r>   -4.3496    1.0000 </r>
       <r>   -3.8915    1.0000 </r>
       <r>   -3.8135    1.0000 </r>
       <r>   -2.4779    1.0000 </r>
       <r>   -1.1499    1.0000 </r>
       <r>    1.3686    0.0000 </r>
       <r>    2.2502    0.0000 </r>
       <r>    2.4016    0.0000 </r>
       <r>    3.9166    0.0000 </r>
       <r>    6.6923    0.0000 </r>
       <r>    7.5724    0.0000 </r>
       <r>    8.1979    0.0000 </r>
       <r>    8.6600    0.0000 </r>
       <r>    9.4727    0.0000 </r>
       <r>    9.8978    0.0000 </r>
       <r>   10.7610    0.0000 </r>
      </set>
      <set comment="kpoint 46">
       <r>  -61.5350    1.0000 </r>
       <r>  -35.8297    1.0000 </r>
       <r>  -35.6808    1.0000 </r>
       <r>  -35.6636    1.0000 </r>
       <r>  -13.0091    1.0000 </r>
       <r>  -12.7618    1.0000 </r>
       <r>   -5.8353    1.0000 </r>
       <r>   -5.5823    1.0000 </r>
       <r>   -4.3411    1.0000 </r>
       <r>   -3.9690    1.0000 </r>
       <r>   -3.5681    1.0000 </r>
       <r>   -2.3263    1.0000 </r>
       <r>   -1.2817    1.0000 </r>
       <r>    1.4571    0.0000 </r>
       <r>    2.0394    0.0000 </r>
       <r>    2.3717    0.0000 </r>
       <r>    3.8473    0.0000 </r>
       <r>    6.8673    0.0000 </r>
       <r>    7.6089    0.0000 </r>
       <r>    7.9044    0.0000 </r>
       <r>    8.5171    0.0000 </r>
       <r>    9.2042    0.0000 </r>
       <r>    9.6014    0.0000 </r>
       <r>   10.5772    0.0000 </r>
      </set>
      <set comment="kpoint 47">
       <r>  -61.5373    1.0000 </r>
       <r>  -35.8201    1.0000 </r>
       <r>  -35.6681    1.0000 </r>
       <r>  -35.6613    1.0000 </r>
       <r>  -13.1523    1.0000 </r>
       <r>  -12.8238    1.0000 </r>
       <r>   -5.8336    1.0000 </r>
       <r>   -5.3526    1.0000 </r>
       <r>   -4.3644    1.0000 </r>
       <r>   -4.0216    1.0000 </r>
       <r>   -3.3223    1.0000 </r>
       <r>   -2.1783    1.0000 </r>
       <r>   -1.3907    1.0000 </r>
       <r>    1.4511    0.0000 </r>
       <r>    1.8955    0.0000 </r>
       <r>    2.3093    0.0000 </r>
       <r>    3.7832    0.0000 </r>
       <r>    6.9841    0.0000 </r>
       <r>    7.5287    0.0000 </r>
       <r>    7.6020    0.0000 </r>
       <r>    8.5307    0.0000 </r>
       <r>    9.0050    0.0000 </r>
       <r>    9.4399    0.0000 </r>
       <r>   10.3774    0.0000 </r>
      </set>
      <set comment="kpoint 48">
       <r>  -61.5402    1.0000 </r>
       <r>  -35.8051    1.0000 </r>
       <r>  -35.6740    1.0000 </r>
       <r>  -35.6427    1.0000 </r>
       <r>  -13.3141    1.0000 </r>
       <r>  -12.8924    1.0000 </r>
       <r>   -5.7942    1.0000 </r>
       <r>   -5.0934    1.0000 </r>
       <r>   -4.4148    1.0000 </r>
       <r>   -4.0429    1.0000 </r>
       <r>   -3.0905    1.0000 </r>
       <r>   -2.0411    1.0000 </r>
       <r>   -1.4722    1.0000 </r>
       <r>    1.3579    0.0000 </r>
       <r>    1.8321    0.0000 </r>
       <r>    2.2179    0.0000 </r>
       <r>    3.7133    0.0000 </r>
       <r>    6.8543    0.0000 </r>
       <r>    7.2971    0.0000 </r>
       <r>    7.6259    0.0000 </r>
       <r>    8.4381    0.0000 </r>
       <r>    8.8815    0.0000 </r>
       <r>    9.5255    0.0000 </r>
       <r>   10.1946    0.0000 </r>
      </set>
      <set comment="kpoint 49">
       <r>  -61.5433    1.0000 </r>
       <r>  -35.7848    1.0000 </r>
       <r>  -35.6802    1.0000 </r>
       <r>  -35.6249    1.0000 </r>
       <r>  -13.4884    1.0000 </r>
       <r>  -12.9653    1.0000 </r>
       <r>   -5.7310    1.0000 </r>
       <r>   -4.8133    1.0000 </r>
       <r>   -4.4803    1.0000 </r>
       <r>   -4.0255    1.0000 </r>
       <r>   -2.8884    1.0000 </r>
       <r>   -1.9194    1.0000 </r>
       <r>   -1.5228    1.0000 </r>
       <r>    1.2611    0.0000 </r>
       <r>    1.7957    0.0000 </r>
       <r>    2.1112    0.0000 </r>
       <r>    3.6263    0.0000 </r>
       <r>    6.5759    0.0000 </r>
       <r>    6.9969    0.0000 </r>
       <r>    7.8677    0.0000 </r>
       <r>    8.2159    0.0000 </r>
       <r>    8.8364    0.0000 </r>
       <r>    9.6474    0.0000 </r>
       <r>   10.0435    0.0000 </r>
      </set>
      <set comment="kpoint 50">
       <r>  -61.5466    1.0000 </r>
       <r>  -35.7596    1.0000 </r>
       <r>  -35.6868    1.0000 </r>
       <r>  -35.6081    1.0000 </r>
       <r>  -13.6692    1.0000 </r>
       <r>  -13.0402    1.0000 </r>
       <r>   -5.6669    1.0000 </r>
       <r>   -4.5376    1.0000 </r>
       <r>   -4.5269    1.0000 </r>
       <r>   -3.9601    1.0000 </r>
       <r>   -2.7397    1.0000 </r>
       <r>   -1.8172    1.0000 </r>
       <r>   -1.5321    1.0000 </r>
       <r>    1.2132    0.0000 </r>
       <r>    1.7606    0.0000 </r>
       <r>    2.0021    0.0000 </r>
       <r>    3.5120    0.0000 </r>
       <r>    6.2743    0.0000 </r>
       <r>    6.7065    0.0000 </r>
       <r>    7.9552    0.0000 </r>
       <r>    8.1324    0.0000 </r>
       <r>    8.8706    0.0000 </r>
       <r>    9.4956    0.0000 </r>
       <r>    9.9195    0.0000 </r>
      </set>
      <set comment="kpoint 51">
       <r>  -61.5502    1.0000 </r>
       <r>  -35.7315    1.0000 </r>
       <r>  -35.6939    1.0000 </r>
       <r>  -35.5934    1.0000 </r>
       <r>  -13.8506    1.0000 </r>
       <r>  -13.1149    1.0000 </r>
       <r>   -5.6347    1.0000 </r>
       <r>   -4.5521    1.0000 </r>
       <r>   -4.2615    1.0000 </r>
       <r>   -3.8304    1.0000 </r>
       <r>   -2.6730    1.0000 </r>
       <r>   -1.7385    1.0000 </r>
       <r>   -1.4833    1.0000 </r>
       <r>    1.2246    0.0000 </r>
       <r>    1.7320    0.0000 </r>
       <r>    1.9012    0.0000 </r>
       <r>    3.3666    0.0000 </r>
       <r>    5.9822    0.0000 </r>
       <r>    6.4298    0.0000 </r>
       <r>    7.6945    0.0000 </r>
       <r>    8.3525    0.0000 </r>
       <r>    8.9691    0.0000 </r>
       <r>    9.1678    0.0000 </r>
       <r>    9.8086    0.0000 </r>
      </set>
      <set comment="kpoint 52">
       <r>  -61.5538    1.0000 </r>
       <r>  -35.7010    1.0000 </r>
       <r>  -35.7009    1.0000 </r>
       <r>  -35.5802    1.0000 </r>
       <r>  -14.0273    1.0000 </r>
       <r>  -13.1874    1.0000 </r>
       <r>   -5.6603    1.0000 </r>
       <r>   -4.4943    1.0000 </r>
       <r>   -4.0415    1.0000 </r>
       <r>   -3.6204    1.0000 </r>
       <r>   -2.6933    1.0000 </r>
       <r>   -1.6856    1.0000 </r>
       <r>   -1.3736    1.0000 </r>
       <r>    1.2860    0.0000 </r>
       <r>    1.7261    0.0000 </r>
       <r>    1.8187    0.0000 </r>
       <r>    3.1925    0.0000 </r>
       <r>    5.7103    0.0000 </r>
       <r>    6.1713    0.0000 </r>
       <r>    7.4424    0.0000 </r>
       <r>    8.3778    0.0000 </r>
       <r>    8.9258    0.0000 </r>
       <r>    9.1079    0.0000 </r>
       <r>    9.7125    0.0000 </r>
      </set>
      <set comment="kpoint 53">
       <r>  -61.5573    1.0000 </r>
       <r>  -35.7081    1.0000 </r>
       <r>  -35.6690    1.0000 </r>
       <r>  -35.5680    1.0000 </r>
       <r>  -14.1943    1.0000 </r>
       <r>  -13.2560    1.0000 </r>
       <r>   -5.7421    1.0000 </r>
       <r>   -4.3645    1.0000 </r>
       <r>   -3.8536    1.0000 </r>
       <r>   -3.3559    1.0000 </r>
       <r>   -2.7756    1.0000 </r>
       <r>   -1.6593    1.0000 </r>
       <r>   -1.2291    1.0000 </r>
       <r>    1.3798    0.0000 </r>
       <r>    1.7574    0.0000 </r>
       <r>    1.7632    0.0000 </r>
       <r>    2.9987    0.0000 </r>
       <r>    5.4627    0.0000 </r>
       <r>    5.9345    0.0000 </r>
       <r>    7.1984    0.0000 </r>
       <r>    8.0404    0.0000 </r>
       <r>    8.9959    0.0000 </r>
       <r>    9.2198    0.0000 </r>
       <r>    9.6731    0.0000 </r>
      </set>
      <set comment="kpoint 54">
       <r>  -61.5607    1.0000 </r>
       <r>  -35.7147    1.0000 </r>
       <r>  -35.6377    1.0000 </r>
       <r>  -35.5579    1.0000 </r>
       <r>  -14.3475    1.0000 </r>
       <r>  -13.3188    1.0000 </r>
       <r>   -5.8569    1.0000 </r>
       <r>   -4.1866    1.0000 </r>
       <r>   -3.6680    1.0000 </r>
       <r>   -3.0836    1.0000 </r>
       <r>   -2.8886    1.0000 </r>
       <r>   -1.6622    1.0000 </r>
       <r>   -1.0822    1.0000 </r>
       <r>    1.4949    0.0000 </r>
       <r>    1.7403    0.0000 </r>
       <r>    1.8293    0.0000 </r>
       <r>    2.7952    0.0000 </r>
       <r>    5.2417    0.0000 </r>
       <r>    5.7227    0.0000 </r>
       <r>    6.9509    0.0000 </r>
       <r>    7.6138    0.0000 </r>
       <r>    9.1573    0.0000 </r>
       <r>    9.2042    0.0000 </r>
       <r>    9.6935    0.0000 </r>
      </set>
      <set comment="kpoint 55">
       <r>  -61.5636    1.0000 </r>
       <r>  -35.7207    1.0000 </r>
       <r>  -35.6073    1.0000 </r>
       <r>  -35.5485    1.0000 </r>
       <r>  -14.4833    1.0000 </r>
       <r>  -13.3744    1.0000 </r>
       <r>   -5.9811    1.0000 </r>
       <r>   -3.9859    1.0000 </r>
       <r>   -3.4702    1.0000 </r>
       <r>   -3.0073    1.0000 </r>
       <r>   -2.8300    1.0000 </r>
       <r>   -1.6945    1.0000 </r>
       <r>   -0.9559    1.0000 </r>
       <r>    1.6320    0.0000 </r>
       <r>    1.7547    0.0000 </r>
       <r>    1.9308    0.0000 </r>
       <r>    2.5959    0.0000 </r>
       <r>    5.0483    0.0000 </r>
       <r>    5.5389    0.0000 </r>
       <r>    6.6720    0.0000 </r>
       <r>    7.2405    0.0000 </r>
       <r>    9.1104    0.0000 </r>
       <r>    9.3436    0.0000 </r>
       <r>    9.5633    0.0000 </r>
      </set>
      <set comment="kpoint 56">
       <r>  -61.5664    1.0000 </r>
       <r>  -35.7261    1.0000 </r>
       <r>  -35.5815    1.0000 </r>
       <r>  -35.5413    1.0000 </r>
       <r>  -14.5986    1.0000 </r>
       <r>  -13.4216    1.0000 </r>
       <r>   -6.0988    1.0000 </r>
       <r>   -3.7871    1.0000 </r>
       <r>   -3.2607    1.0000 </r>
       <r>   -3.1182    1.0000 </r>
       <r>   -2.6142    1.0000 </r>
       <r>   -1.7595    1.0000 </r>
       <r>   -0.8609    1.0000 </r>
       <r>    1.7902    0.0000 </r>
       <r>    1.8016    0.0000 </r>
       <r>    2.0387    0.0000 </r>
       <r>    2.4111    0.0000 </r>
       <r>    4.8825    0.0000 </r>
       <r>    5.3852    0.0000 </r>
       <r>    6.3451    0.0000 </r>
       <r>    6.9744    0.0000 </r>
       <r>    9.0015    0.0000 </r>
       <r>    9.2585    0.0000 </r>
       <r>    9.5344    0.0000 </r>
      </set>
      <set comment="kpoint 57">
       <r>  -61.5686    1.0000 </r>
       <r>  -35.7307    1.0000 </r>
       <r>  -35.5594    1.0000 </r>
       <r>  -35.5358    1.0000 </r>
       <r>  -14.6908    1.0000 </r>
       <r>  -13.4594    1.0000 </r>
       <r>   -6.1992    1.0000 </r>
       <r>   -3.6068    1.0000 </r>
       <r>   -3.2108    1.0000 </r>
       <r>   -3.0419    1.0000 </r>
       <r>   -2.4448    1.0000 </r>
       <r>   -1.8571    1.0000 </r>
       <r>   -0.7969    1.0000 </r>
       <r>    1.8717    0.0000 </r>
       <r>    1.9611    0.0000 </r>
       <r>    2.1365    0.0000 </r>
       <r>    2.2533    0.0000 </r>
       <r>    4.7446    0.0000 </r>
       <r>    5.2635    0.0000 </r>
       <r>    6.0152    0.0000 </r>
       <r>    6.8012    0.0000 </r>
       <r>    8.8694    0.0000 </r>
       <r>    8.9571    0.0000 </r>
       <r>    9.7408    0.0000 </r>
      </set>
      <set comment="kpoint 58">
       <r>  -61.5702    1.0000 </r>
       <r>  -35.7339    1.0000 </r>
       <r>  -35.5427    1.0000 </r>
       <r>  -35.5318    1.0000 </r>
       <r>  -14.7581    1.0000 </r>
       <r>  -13.4870    1.0000 </r>
       <r>   -6.2752    1.0000 </r>
       <r>   -3.4627    1.0000 </r>
       <r>   -3.2803    1.0000 </r>
       <r>   -2.8218    1.0000 </r>
       <r>   -2.3247    1.0000 </r>
       <r>   -1.9849    1.0000 </r>
       <r>   -0.7582    1.0000 </r>
       <r>    1.9487    0.0000 </r>
       <r>    2.1189    0.0000 </r>
       <r>    2.1331    0.0000 </r>
       <r>    2.2127    0.0000 </r>
       <r>    4.6362    0.0000 </r>
       <r>    5.1753    0.0000 </r>
       <r>    5.7412    0.0000 </r>
       <r>    6.6894    0.0000 </r>
       <r>    8.6121    0.0000 </r>
       <r>    8.8528    0.0000 </r>
       <r>    9.9500    0.0000 </r>
      </set>
      <set comment="kpoint 59">
       <r>  -61.5711    1.0000 </r>
[...]
        <r>  0.0000  0.0000  0.0209  0.0000  0.0000  0.1796  0.0000  0.0601  0.0000 </r>
        <r>  0.0000  0.0796  0.1009  0.0304  0.0000  0.0000  0.0000  0.0000  0.0000 </r>
        <r>  0.0000  0.0796  0.1009  0.0304  0.0000  0.0000  0.0000  0.0000  0.0000 </r>
       </set>
       <set comment="band 13">
        <r>  0.0117  0.0002  0.0000  0.0001  0.0019  0.0000  0.5617  0.0000  0.0053 </r>
        <r>  0.0028  0.0023  0.0683  0.0008  0.0000  0.0000  0.0000  0.0000  0.0000 </r>
        <r>  0.0028  0.0023  0.0683  0.0008  0.0000  0.0000  0.0000  0.0000  0.0000 </r>
       </set>
       <set comment="band 14">
        <r>  0.0000  0.0000  0.0002  0.0000  0.0000  0.2692  0.0000  0.1132  0.0000 </r>
        <r>  0.0057  0.1211  0.0007  0.0404  0.0000  0.0000  0.0000  0.0000  0.0000 </r>
        <r>  0.0057  0.1211  0.0007  0.0404  0.0000  0.0000  0.0000  0.0000  0.0000 </r>
       </set>
       <set comment="band 15">
        <r>  0.0014  0.0068  0.0000  0.0026  0.0752  0.0000  0.0079  0.0000  0.2252 </r>
        <r>  0.0040  0.1560  0.0012  0.0521  0.0000  0.0000  0.0000  0.0000  0.0000 </r>
        <r>  0.0040  0.1560  0.0012  0.0520  0.0000  0.0000  0.0000  0.0000  0.0000 </r>
       </set>
       <set comment="band 16">
        <r>  0.0000  0.0000  0.0000  0.0000  0.0000  0.1086  0.0000  0.2577  0.0000 </r>
        <r>  0.0000  0.0456  0.0001  0.1365  0.0000  0.0000  0.0000  0.0000  0.0000 </r>
        <r>  0.0000  0.0455  0.0001  0.1365  0.0000  0.0000  0.0000  0.0000  0.0000 </r>
       </set>
       <set comment="band 17">
        <r>  0.0001  0.0029  0.0000  0.0076  0.2278  0.0000  0.0002  0.0000  0.0761 </r>
        <r>  0.0000  0.0560  0.0000  0.1680  0.0000  0.0000  0.0000  0.0000  0.0000 </r>
        <r>  0.0000  0.0560  0.0000  0.1680  0.0000  0.0000  0.0000  0.0000  0.0000 </r>
       </set>
       <set comment="band 18">
        <r>  0.0200  0.0004  0.0000  0.0001  0.0003  0.0000  0.0207  0.0000  0.0009 </r>
        <r>  0.0157  0.0029  0.0035  0.0010  0.0000  0.0000  0.0000  0.0000  0.0000 </r>
        <r>  0.0157  0.0029  0.0035  0.0010  0.0000  0.0000  0.0000  0.0000  0.0000 </r>
       </set>
       <set comment="band 19">
        <r>  0.0000  0.0000  0.0012  0.0000  0.0000  0.0007  0.0000  0.0002  0.0000 </r>
        <r>  0.0032  0.0002  0.0244  0.0001  0.0000  0.0000  0.0000  0.0000  0.0000 </r>
        <r>  0.0032  0.0002  0.0244  0.0001  0.0000  0.0000  0.0000  0.0000  0.0000 </r>
       </set>
       <set comment="band 20">
        <r>  0.1255  0.0014  0.0000  0.0005  0.0009  0.0000  0.0032  0.0000  0.0026 </r>
        <r>  0.0709  0.0066  0.0187  0.0022  0.0000  0.0000  0.0000  0.0000  0.0000 </r>
        <r>  0.0709  0.0066  0.0187  0.0022  0.0000  0.0000  0.0000  0.0000  0.0000 </r>
       </set>
       <set comment="band 21">
        <r>  0.0004  0.0000  0.0000  0.0000  0.0011  0.0000  0.0207  0.0000  0.0033 </r>
        <r>  0.0002  0.0000  0.0199  0.0000  0.0000  0.0000  0.0000  0.0000  0.0000 </r>
        <r>  0.0002  0.0000  0.0199  0.0000  0.0000  0.0000  0.0000  0.0000  0.0000 </r>
       </set>
       <set comment="band 22">
        <r>  0.0000  0.0000  0.0508  0.0000  0.0000  0.0006  0.0000  0.0004  0.0000 </r>
        <r>  0.0685  0.0079  0.0001  0.0026  0.0000  0.0000  0.0000  0.0000  0.0000 </r>
        <r>  0.0685  0.0079  0.0001  0.0026  0.0000  0.0000  0.0000  0.0000  0.0000 </r>
       </set>
       <set comment="band 23">
        <r>  0.0000  0.0000  0.0036  0.0000  0.0000  0.0002  0.0000  0.0001  0.0000 </r>
        <r>  0.0146  0.0005  0.0244  0.0002  0.0000  0.0000  0.0000  0.0000  0.0000 </r>
        <r>  0.0146  0.0005  0.0244  0.0002  0.0000  0.0000  0.0000  0.0000  0.0000 </r>
       </set>
       <set comment="band 24">
        <r>  0.0462  0.0425  0.0000  0.0143  0.0038  0.0000  0.0090  0.0000  0.0104 </r>
        <r>  0.0021  0.0027  0.0064  0.0027  0.0000  0.0000  0.0000  0.0000  0.0000 </r>
        <r>  0.0021  0.0027  0.0064  0.0027  0.0000  0.0000  0.0000  0.0000  0.0000 </r>
       </set>
      </set>
      <set comment="kpoint 59">
       <set comment="band 1">
        <r>  0.9947  0.0000  0.0000  0.0000  0.0000  0.0000  0.0000  0.0000  0.0000 </r>
        <r>  0.0001  0.0000  0.0001  0.0000  0.0000  0.0000  0.0000  0.0000  0.0000 </r>
        <r>  0.0001  0.0000  0.0001  0.0000  0.0000  0.0000  0.0000  0.0000  0.0000 </r>
       </set>
       <set comment="band 2">
        <r>  0.0000  0.0000  0.9787  0.0000  0.0000  0.0000  0.0000  0.0000  0.0000 </r>
        <r>  0.0017  0.0000  0.0005  0.0000  0.0000  0.0000  0.0000  0.0000  0.0000 </r>
        <r>  0.0017  0.0000  0.0005  0.0000  0.0000  0.0000  0.0000  0.0000  0.0000 </r>
       </set>
       <set comment="band 3">
        <r>  0.0000  0.7453  0.0000  0.2484  0.0000  0.0000  0.0000  0.0000  0.0000 </r>
        <r>  0.0000  0.0001  0.0000  0.0000  0.0000  0.0000  0.0000  0.0000  0.0000 </r>
        <r>  0.0000  0.0001  0.0000  0.0000  0.0000  0.0000  0.0000  0.0000  0.0000 </r>
       </set>
       <set comment="band 4">
        <r>  0.0000  0.2485  0.0000  0.7455  0.0000  0.0000  0.0000  0.0000  0.0000 </r>
        <r>  0.0000  0.0000  0.0000  0.0001  0.0000  0.0000  0.0000  0.0000  0.0000 </r>
        <r>  0.0000  0.0000  0.0000  0.0001  0.0000  0.0000  0.0000  0.0000  0.0000 </r>
       </set>
       <set comment="band 5">
        <r>  0.0803  0.0002  0.0000  0.0001  0.0000  0.0000  0.0002  0.0000  0.0001 </r>
        <r>  0.2754  0.0000  0.0051  0.0000  0.0000  0.0000  0.0000  0.0000  0.0000 </r>
        <r>  0.2754  0.0000  0.0051  0.0000  0.0000  0.0000  0.0000  0.0000  0.0000 </r>
       </set>
       <set comment="band 6">
        <r>  0.0000  0.0000  0.0335  0.0000  0.0000  0.0004  0.0000  0.0001  0.0000 </r>
        <r>  0.3137  0.0000  0.0003  0.0000  0.0000  0.0000  0.0000  0.0000  0.0000 </r>
        <r>  0.3137  0.0000  0.0003  0.0000  0.0000  0.0000  0.0000  0.0000  0.0000 </r>
       </set>
       <set comment="band 7">
        <r>  0.0937  0.0003  0.0000  0.0001  0.0002  0.0000  0.1746  0.0000  0.0005 </r>
        <r>  0.0180  0.0001  0.1264  0.0000  0.0000  0.0000  0.0000  0.0000  0.0000 </r>
        <r>  0.0180  0.0001  0.1264  0.0000  0.0000  0.0000  0.0000  0.0000  0.0000 </r>
       </set>
       <set comment="band 8">
        <r>  0.0016  0.0027  0.0000  0.0010  0.1340  0.0000  0.0000  0.0000  0.4018 </r>
        <r>  0.0005  0.0866  0.0000  0.0289  0.0000  0.0000  0.0000  0.0000  0.0000 </r>
        <r>  0.0005  0.0866  0.0000  0.0289  0.0000  0.0000  0.0000  0.0000  0.0000 </r>
       </set>
       <set comment="band 9">
        <r>  0.0000  0.0011  0.0000  0.0028  0.4052  0.0000  0.0000  0.0000  0.1351 </r>
        <r>  0.0000  0.0290  0.0000  0.0870  0.0000  0.0000  0.0000  0.0000  0.0000 </r>
        <r>  0.0000  0.0290  0.0000  0.0870  0.0000  0.0000  0.0000  0.0000  0.0000 </r>
       </set>
       <set comment="band 10">
        <r>  0.0000  0.0000  0.0186  0.0000  0.0000  0.1050  0.0000  0.0351  0.0000 </r>
        <r>  0.0003  0.0261  0.1857  0.0089  0.0000  0.0000  0.0000  0.0000  0.0000 </r>
        <r>  0.0003  0.0261  0.1857  0.0089  0.0000  0.0000  0.0000  0.0000  0.0000 </r>
       </set>
       <set comment="band 11">
        <r>  0.0000  0.0000  0.0000  0.0000  0.0000  0.1241  0.0000  0.3716  0.0000 </r>
        <r>  0.0000  0.0401  0.0000  0.1165  0.0000  0.0000  0.0000  0.0000  0.0000 </r>
        <r>  0.0000  0.0401  0.0000  0.1165  0.0000  0.0000  0.0000  0.0000  0.0000 </r>
       </set>
       <set comment="band 12">
        <r>  0.0000  0.0000  0.0113  0.0000  0.0000  0.2619  0.0000  0.0874  0.0000 </r>
        <r>  0.0000  0.0919  0.0629  0.0317  0.0000  0.0000  0.0000  0.0000  0.0000 </r>
        <r>  0.0000  0.0919  0.0629  0.0317  0.0000  0.0000  0.0000  0.0000  0.0000 </r>
       </set>
       <set comment="band 13">
        <r>  0.0114  0.0000  0.0000  0.0000  0.0004  0.0000  0.5663  0.0000  0.0012 </r>
        <r>  0.0023  0.0006  0.0696  0.0002  0.0000  0.0000  0.0000  0.0000  0.0000 </r>
        <r>  0.0023  0.0006  0.0696  0.0002  0.0000  0.0000  0.0000  0.0000  0.0000 </r>
       </set>
       <set comment="band 14">
        <r>  0.0000  0.0000  0.0001  0.0000  0.0000  0.2680  0.0000  0.0952  0.0000 </r>
        <r>  0.0016  0.1331  0.0002  0.0444  0.0000  0.0000  0.0000  0.0000  0.0000 </r>
        <r>  0.0016  0.1331  0.0002  0.0444  0.0000  0.0000  0.0000  0.0000  0.0000 </r>
       </set>
       <set comment="band 15">
        <r>  0.0000  0.0000  0.0000  0.0000  0.0000  0.0941  0.0000  0.2649  0.0000 </r>
        <r>  0.0000  0.0458  0.0000  0.1374  0.0000  0.0000  0.0000  0.0000  0.0000 </r>
        <r>  0.0000  0.0458  0.0000  0.1374  0.0000  0.0000  0.0000  0.0000  0.0000 </r>
       </set>
       <set comment="band 16">
        <r>  0.0005  0.0076  0.0000  0.0026  0.0741  0.0000  0.0018  0.0000  0.2223 </r>
        <r>  0.0012  0.1681  0.0003  0.0560  0.0000  0.0000  0.0000  0.0000  0.0000 </r>
        <r>  0.0012  0.1681  0.0003  0.0560  0.0000  0.0000  0.0000  0.0000  0.0000 </r>
       </set>
       <set comment="band 17">
        <r>  0.0000  0.0027  0.0000  0.0078  0.2227  0.0000  0.0000  0.0000  0.0743 </r>
        <r>  0.0000  0.0572  0.0000  0.1716  0.0000  0.0000  0.0000  0.0000  0.0000 </r>
        <r>  0.0000  0.0572  0.0000  0.1716  0.0000  0.0000  0.0000  0.0000  0.0000 </r>
       </set>
       <set comment="band 18">
        <r>  0.0248  0.0001  0.0000  0.0000  0.0001  0.0000  0.0202  0.0000  0.0003 </r>
        <r>  0.0196  0.0010  0.0028  0.0003  0.0000  0.0000  0.0000  0.0000  0.0000 </r>
        <r>  0.0196  0.0010  0.0028  0.0003  0.0000  0.0000  0.0000  0.0000  0.0000 </r>
       </set>
       <set comment="band 19">
        <r>  0.0000  0.0000  0.0013  0.0000  0.0000  0.0002  0.0000  0.0001  0.0000 </r>
        <r>  0.0036  0.0001  0.0241  0.0000  0.0000  0.0000  0.0000  0.0000  0.0000 </r>
        <r>  0.0036  0.0001  0.0241  0.0000  0.0000  0.0000  0.0000  0.0000  0.0000 </r>
       </set>
       <set comment="band 20">
        <r>  0.1247  0.0004  0.0000  0.0001  0.0002  0.0000  0.0017  0.0000  0.0007 </r>
        <r>  0.0710  0.0018  0.0206  0.0006  0.0000  0.0000  0.0000  0.0000  0.0000 </r>
        <r>  0.0710  0.0018  0.0206  0.0006  0.0000  0.0000  0.0000  0.0000  0.0000 </r>
       </set>
       <set comment="band 21">
        <r>  0.0001  0.0000  0.0000  0.0000  0.0003  0.0000  0.0215  0.0000  0.0008 </r>
        <r>  0.0006  0.0000  0.0190  0.0000  0.0000  0.0000  0.0000  0.0000  0.0000 </r>
        <r>  0.0006  0.0000  0.0190  0.0000  0.0000  0.0000  0.0000  0.0000  0.0000 </r>
       </set>
       <set comment="band 22">
        <r>  0.0000  0.0000  0.0533  0.0000  0.0000  0.0002  0.0000  0.0001  0.0000 </r>
        <r>  0.0778  0.0022  0.0000  0.0007  0.0000  0.0000  0.0000  0.0000  0.0000 </r>
        <r>  0.0778  0.0022  0.0000  0.0007  0.0000  0.0000  0.0000  0.0000  0.0000 </r>
       </set>
       <set comment="band 23">
        <r>  0.0000  0.0000  0.0019  0.0000  0.0000  0.0001  0.0000  0.0000  0.0000 </r>
        <r>  0.0105  0.0001  0.0240  0.0000  0.0000  0.0000  0.0000  0.0000  0.0000 </r>
        <r>  0.0105  0.0001  0.0240  0.0000  0.0000  0.0000  0.0000  0.0000  0.0000 </r>
       </set>
       <set comment="band 24">
        <r>  0.0140  0.0334  0.0000  0.0377  0.0100  0.0000  0.0051  0.0000  0.0083 </r>
        <r>  0.0014  0.0009  0.0012  0.0026  0.0000  0.0000  0.0000  0.0000  0.0000 </r>
        <r>  0.0014  0.0009  0.0012  0.0026  0.0000  0.0000  0.0000  0.0000  0.0000 </r>
       </set>
      </set>
      <set comment="kpoint 60">
       <set comment="band 1">
        <r>  0.9947  0.0000  0.0000  0.0000  0.0000  0.0000  0.0000  0.0000  0.0000 </r>
        <r>  0.0001  0.0000  0.0001  0.0000  0.0000  0.0000  0.0000  0.0000  0.0000 </r>
        <r>  0.0001  0.0000  0.0001  0.0000  0.0000  0.0000  0.0000  0.0000  0.0000 </r>
       </set>
       <set comment="band 2">
        <r>  0.0000  0.0000  0.9787  0.0000  0.0000  0.0000  0.0000  0.0000  0.0000 </r>
        <r>  0.0017  0.0000  0.0005  0.0000  0.0000  0.0000  0.0000  0.0000  0.0000 </r>
        <r>  0.0017  0.0000  0.0005  0.0000  0.0000  0.0000  0.0000  0.0000  0.0000 </r>
       </set>
       <set comment="band 3">
        <r>  0.0000  0.2483  0.0000  0.7457  0.0000  0.0000  0.0000  0.0000  0.0000 </r>
        <r>  0.0000  0.0000  0.0000  0.0001  0.0000  0.0000  0.0000  0.0000  0.0000 </r>
        <r>  0.0000  0.0000  0.0000  0.0001  0.0000  0.0000  0.0000  0.0000  0.0000 </r>
       </set>
       <set comment="band 4">
        <r>  0.0000  0.7457  0.0000  0.2483  0.0000  0.0000  0.0000  0.0000  0.0000 </r>
        <r>  0.0000  0.0001  0.0000  0.0000  0.0000  0.0000  0.0000  0.0000  0.0000 </r>
        <r>  0.0000  0.0001  0.0000  0.0000  0.0000  0.0000  0.0000  0.0000  0.0000 </r>
       </set>
       <set comment="band 5">
        <r>  0.0808  0.0000  0.0000  0.0000  0.0000  0.0000  0.0002  0.0000  0.0000 </r>
        <r>  0.2752  0.0000  0.0052  0.0000  0.0000  0.0000  0.0000  0.0000  0.0000 </r>
        <r>  0.2752  0.0000  0.0052  0.0000  0.0000  0.0000  0.0000  0.0000  0.0000 </r>
       </set>
       <set comment="band 6">
        <r>  0.0000  0.0000  0.0337  0.0000  0.0000  0.0000  0.0000  0.0000  0.0000 </r>
        <r>  0.3136  0.0000  0.0003  0.0000  0.0000  0.0000  0.0000  0.0000  0.0000 </r>
        <r>  0.3136  0.0000  0.0003  0.0000  0.0000  0.0000  0.0000  0.0000  0.0000 </r>
       </set>
       <set comment="band 7">
        <r>  0.0945  0.0000  0.0000  0.0000  0.0000  0.0000  0.1752  0.0000  0.0000 </r>
        <r>  0.0182  0.0000  0.1261  0.0000  0.0000  0.0000  0.0000  0.0000  0.0000 </r>
        <r>  0.0182  0.0000  0.1261  0.0000  0.0000  0.0000  0.0000  0.0000  0.0000 </r>
       </set>
       <set comment="band 8">
        <r>  0.0000  0.0009  0.0000  0.0027  0.4067  0.0000  0.0000  0.0000  0.1357 </r>
        <r>  0.0000  0.0288  0.0000  0.0865  0.0000  0.0000  0.0000  0.0000  0.0000 </r>
        <r>  0.0000  0.0288  0.0000  0.0865  0.0000  0.0000  0.0000  0.0000  0.0000 </r>
       </set>
       <set comment="band 9">
        <r>  0.0000  0.0027  0.0000  0.0009  0.1357  0.0000  0.0000  0.0000  0.4067 </r>
        <r>  0.0000  0.0865  0.0000  0.0288  0.0000  0.0000  0.0000  0.0000  0.0000 </r>
        <r>  0.0000  0.0865  0.0000  0.0288  0.0000  0.0000  0.0000  0.0000  0.0000 </r>
       </set>
       <set comment="band 10">
        <r>  0.0000  0.0000  0.0293  0.0000  0.0000  0.0000  0.0000  0.0000  0.0000 </r>
        <r>  0.0003  0.0000  0.2486  0.0000  0.0000  0.0000  0.0000  0.0000  0.0000 </r>
        <r>  0.0003  0.0000  0.2486  0.0000  0.0000  0.0000  0.0000  0.0000  0.0000 </r>
       </set>
       <set comment="band 11">
        <r>  0.0000  0.0000  0.0000  0.0000  0.0000  0.3750  0.0000  0.1224  0.0000 </r>
        <r>  0.0000  0.1179  0.0000  0.0385  0.0000  0.0000  0.0000  0.0000  0.0000 </r>
        <r>  0.0000  0.1179  0.0000  0.0385  0.0000  0.0000  0.0000  0.0000  0.0000 </r>
       </set>
       <set comment="band 12">
        <r>  0.0000  0.0000  0.0000  0.0000  0.0000  0.1224  0.0000  0.3750  0.0000 </r>
        <r>  0.0000  0.0385  0.0000  0.1179  0.0000  0.0000  0.0000  0.0000  0.0000 </r>
        <r>  0.0000  0.0385  0.0000  0.1179  0.0000  0.0000  0.0000  0.0000  0.0000 </r>
       </set>
       <set comment="band 13">
        <r>  0.0112  0.0000  0.0000  0.0000  0.0000  0.0000  0.5675  0.0000  0.0000 </r>
        <r>  0.0022  0.0000  0.0701  0.0000  0.0000  0.0000  0.0000  0.0000  0.0000 </r>
        <r>  0.0022  0.0000  0.0701  0.0000  0.0000  0.0000  0.0000  0.0000  0.0000 </r>
       </set>
       <set comment="band 14">
        <r>  0.0000  0.0000  0.0000  0.0000  0.0000  0.0879  0.0000  0.2686  0.0000 </r>
        <r>  0.0000  0.0452  0.0000  0.1382  0.0000  0.0000  0.0000  0.0000  0.0000 </r>
        <r>  0.0000  0.0452  0.0000  0.1382  0.0000  0.0000  0.0000  0.0000  0.0000 </r>
       </set>
       <set comment="band 15">
        <r>  0.0000  0.0000  0.0000  0.0000  0.0000  0.2686  0.0000  0.0879  0.0000 </r>
        <r>  0.0000  0.1382  0.0000  0.0452  0.0000  0.0000  0.0000  0.0000  0.0000 </r>
        <r>  0.0000  0.1382  0.0000  0.0452  0.0000  0.0000  0.0000  0.0000  0.0000 </r>
       </set>
       <set comment="band 16">
        <r>  0.0000  0.0086  0.0000  0.0019  0.0530  0.0000  0.0000  0.0000  0.2416 </r>
        <r>  0.0000  0.1887  0.0000  0.0414  0.0000  0.0000  0.0000  0.0000  0.0000 </r>
        <r>  0.0000  0.1887  0.0000  0.0414  0.0000  0.0000  0.0000  0.0000  0.0000 </r>
       </set>
       <set comment="band 17">
        <r>  0.0000  0.0019  0.0000  0.0086  0.2416  0.0000  0.0000  0.0000  0.0530 </r>
        <r>  0.0000  0.0414  0.0000  0.1887  0.0000  0.0000  0.0000  0.0000  0.0000 </r>
        <r>  0.0000  0.0414  0.0000  0.1887  0.0000  0.0000  0.0000  0.0000  0.0000 </r>
       </set>
       <set comment="band 18">
        <r>  0.0270  0.0000  0.0000  0.0000  0.0000  0.0000  0.0200  0.0000  0.0000 </r>
        <r>  0.0214  0.0000  0.0026  0.0000  0.0000  0.0000  0.0000  0.0000  0.0000 </r>
        <r>  0.0214  0.0000  0.0026  0.0000  0.0000  0.0000  0.0000  0.0000  0.0000 </r>
       </set>
       <set comment="band 19">
        <r>  0.0000  0.0000  0.0014  0.0000  0.0000  0.0000  0.0000  0.0000  0.0000 </r>
        <r>  0.0037  0.0000  0.0241  0.0000  0.0000  0.0000  0.0000  0.0000  0.0000 </r>
        <r>  0.0037  0.0000  0.0241  0.0000  0.0000  0.0000  0.0000  0.0000  0.0000 </r>
       </set>
       <set comment="band 20">
        <r>  0.1240  0.0000  0.0000  0.0000  0.0000  0.0000  0.0012  0.0000  0.0000 </r>
        <r>  0.0708  0.0000  0.0212  0.0000  0.0000  0.0000  0.0000  0.0000  0.0000 </r>
        <r>  0.0708  0.0000  0.0212  0.0000  0.0000  0.0000  0.0000  0.0000  0.0000 </r>
       </set>
       <set comment="band 21">
        <r>  0.0000  0.0000  0.0000  0.0000  0.0000  0.0000  0.0217  0.0000  0.0000 </r>
        <r>  0.0007  0.0000  0.0187  0.0000  0.0000  0.0000  0.0000  0.0000  0.0000 </r>
        <r>  0.0007  0.0000  0.0187  0.0000  0.0000  0.0000  0.0000  0.0000  0.0000 </r>
       </set>
       <set comment="band 22">
        <r>  0.0000  0.0000  0.0539  0.0000  0.0000  0.0000  0.0000  0.0000  0.0000 </r>
        <r>  0.0803  0.0000  0.0000  0.0000  0.0000  0.0000  0.0000  0.0000  0.0000 </r>
        <r>  0.0803  0.0000  0.0000  0.0000  0.0000  0.0000  0.0000  0.0000  0.0000 </r>
       </set>
       <set comment="band 23">
        <r>  0.0000  0.0000  0.0017  0.0000  0.0000  0.0000  0.0000  0.0000  0.0000 </r>
        <r>  0.0098  0.0000  0.0238  0.0000  0.0000  0.0000  0.0000  0.0000  0.0000 </r>
        <r>  0.0098  0.0000  0.0238  0.0000  0.0000  0.0000  0.0000  0.0000  0.0000 </r>
       </set>
       <set comment="band 24">
        <r>  0.0000  0.0215  0.0000  0.0645  0.0139  0.0000  0.0000  0.0000  0.0046 </r>
        <r>  0.0000  0.0008  0.0000  0.0023  0.0000  0.0000  0.0000  0.0000  0.0000 </r>
        <r>  0.0000  0.0008  0.0000  0.0023  0.0000  0.0000  0.0000  0.0000  0.0000 </r>
       </set>
      </set>
     </set>
    </set>
   </array>
  </projected>
 </calculation>
 <structure name="finalpos" >
  <crystal>
   <varray name="basis" >
    <v>       3.18386047       0.00000000       0.00000000 </v>
    <v>      -1.59193023       2.75730405       0.00000000 </v>
    <v>       0.00000000       0.00000000      15.00000000 </v>
   </varray>
   <i name="volume">    131.68307038 </i>
   <varray name="rec_basis" >
    <v>       0.31408412       0.18133655       0.00000000 </v>
    <v>       0.00000000       0.36267310       0.00000000 </v>
    <v>       0.00000000       0.00000000       0.06666667 </v>
   </varray>
  </crystal>
  <varray name="positions" >
   <v>       0.66666669       0.33333334       0.25000000 </v>
   <v>       0.33333334       0.66666669       0.35415213 </v>
   <v>       0.33333334       0.66666669       0.14584787 </v>
  </varray>
 </structure>
</modeling>
