  27  27   0   0
  0.4389436E+02  0.9551582E-09  0.9551582E-09  0.1500000E-08  0.5000000E-15
  1.000000000000000E-004
  CAR 
 unknown system                          
      5.85197656    -64.81616185  301     -0.24315038      1.00000000
    -64.816  0.0000E+00  0.0000E+00
    -64.581  0.0000E+00  0.0000E+00
    -64.345  0.0000E+00  0.0000E+00
    -64.109  0.0000E+00  0.0000E+00
    -63.874  0.0000E+00  0.0000E+00
    -63.638  0.0000E+00  0.0000E+00
    -63.403  0.0000E+00  0.0000E+00
    -63.167  0.0000E+00  0.0000E+00
    -62.932  0.0000E+00  0.0000E+00
    -62.696  0.0000E+00  0.0000E+00
    -62.461  0.0000E+00  0.0000E+00
    -62.225  0.0000E+00  0.0000E+00
    -61.989  0.3248E-06  0.7652E-07
    -61.754  0.5036E+00  0.1186E+00
    -61.518  0.5988E+02  0.1422E+02
    -61.283  0.1603E+02  0.1800E+02
    -61.047  0.1545E-02  0.1800E+02
    -60.812  0.4710E-11  0.1800E+02
    -60.576  0.0000E+00  0.1800E+02
    -60.341  0.0000E+00  0.1800E+02
    -60.105  0.0000E+00  0.1800E+02
    -59.869  0.0000E+00  0.1800E+02
    -59.634  0.0000E+00  0.1800E+02
    -59.398  0.0000E+00  0.1800E+02
    -59.163  0.0000E+00  0.1800E+02
    -58.927  0.0000E+00  0.1800E+02
    -58.692  0.0000E+00  0.1800E+02
    -58.456  0.0000E+00  0.1800E+02
    -58.220  0.0000E+00  0.1800E+02
    -57.985  0.0000E+00  0.1800E+02
    -57.749  0.0000E+00  0.1800E+02
    -57.514  0.0000E+00  0.1800E+02
    -57.278  0.0000E+00  0.1800E+02
    -57.043  0.0000E+00  0.1800E+02
    -56.807  0.0000E+00  0.1800E+02
    -56.572  0.0000E+00  0.1800E+02
    -56.336  0.0000E+00  0.1800E+02
    -56.100  0.0000E+00  0.1800E+02
    -55.865  0.0000E+00  0.1800E+02
    -55.629  0.0000E+00  0.1800E+02
    -55.394  0.0000E+00  0.1800E+02
    -55.158  0.0000E+00  0.1800E+02
    -54.923  0.0000E+00  0.1800E+02
    -54.687  0.0000E+00  0.1800E+02
    -54.452  0.0000E+00  0.1800E+02
    -54.216  0.0000E+00  0.1800E+02
    -53.980  0.0000E+00  0.1800E+02
    -53.745  0.0000E+00  0.1800E+02
    -53.509  0.0000E+00  0.1800E+02
    -53.274  0.0000E+00  0.1800E+02
    -53.038  0.0000E+00  0.1800E+02
    -52.803  0.0000E+00  0.1800E+02
    -52.567  0.0000E+00  0.1800E+02
    -52.331  0.0000E+00  0.1800E+02
    -52.096  0.0000E+00  0.1800E+02
    -51.860  0.0000E+00  0.1800E+02
    -51.625  0.0000E+00  0.1800E+02
    -51.389  0.0000E+00  0.1800E+02
    -51.154  0.0000E+00  0.1800E+02
    -50.918  0.0000E+00  0.1800E+02
    -50.683  0.0000E+00  0.1800E+02
    -50.447  0.0000E+00  0.1800E+02
    -50.211  0.0000E+00  0.1800E+02
    -49.976  0.0000E+00  0.1800E+02
    -49.740  0.0000E+00  0.1800E+02
    -49.505  0.0000E+00  0.1800E+02
    -49.269  0.0000E+00  0.1800E+02
    -49.034  0.0000E+00  0.1800E+02
    -48.798  0.0000E+00  0.1800E+02
    -48.562  0.0000E+00  0.1800E+02
    -48.327  0.0000E+00  0.1800E+02
    -48.091  0.0000E+00  0.1800E+02
    -47.856  0.0000E+00  0.1800E+02
    -47.620  0.0000E+00  0.1800E+02
    -47.385  0.0000E+00  0.1800E+02
    -47.149  0.0000E+00  0.1800E+02
    -46.914  0.0000E+00  0.1800E+02
    -46.678  0.0000E+00  0.1800E+02
    -46.442  0.0000E+00  0.1800E+02
    -46.207  0.0000E+00  0.1800E+02
    -45.971  0.0000E+00  0.1800E+02
    -45.736  0.0000E+00  0.1800E+02
    -45.500  0.0000E+00  0.1800E+02
    -45.265  0.0000E+00  0.1800E+02
    -45.029  0.0000E+00  0.1800E+02
    -44.794  0.0000E+00  0.1800E+02
    -44.558  0.0000E+00  0.1800E+02
    -44.322  0.0000E+00  0.1800E+02
    -44.087  0.0000E+00  0.1800E+02
    -43.851  0.0000E+00  0.1800E+02
    -43.616  0.0000E+00  0.1800E+02
    -43.380  0.0000E+00  0.1800E+02
    -43.145  0.0000E+00  0.1800E+02
    -42.909  0.0000E+00  0.1800E+02
    -42.673  0.0000E+00  0.1800E+02
    -42.438  0.0000E+00  0.1800E+02
    -42.202  0.0000E+00  0.1800E+02
    -41.967  0.0000E+00  0.1800E+02
    -41.731  0.0000E+00  0.1800E+02
    -41.496  0.0000E+00  0.1800E+02
    -41.260  0.0000E+00  0.1800E+02
    -41.025  0.0000E+00  0.1800E+02
    -40.789  0.0000E+00  0.1800E+02
    -40.553  0.0000E+00  0.1800E+02
    -40.318  0.0000E+00  0.1800E+02
    -40.082  0.0000E+00  0.1800E+02
    -39.847  0.0000E+00  0.1800E+02
    -39.611  0.0000E+00  0.1800E+02
    -39.376  0.0000E+00  0.1800E+02
    -39.140  0.0000E+00  0.1800E+02
    -38.905  0.0000E+00  0.1800E+02
    -38.669  0.0000E+00  0.1800E+02
    -38.433  0.0000E+00  0.1800E+02
    -38.198  0.0000E+00  0.1800E+02
    -37.962  0.0000E+00  0.1800E+02
    -37.727  0.0000E+00  0.1800E+02
    -37.491  0.0000E+00  0.1800E+02
    -37.256  0.0000E+00  0.1800E+02
    -37.020  0.0000E+00  0.1800E+02
    -36.784  0.0000E+00  0.1800E+02
    -36.549  0.0000E+00  0.1800E+02
    -36.313  0.2159E-07  0.1800E+02
    -36.078  0.7726E-01  0.1802E+02
    -35.842  0.3063E+02  0.2523E+02
    -35.607  0.1505E+03  0.6069E+02
    -35.371  0.4792E+02  0.7198E+02
    -35.136  0.9247E-01  0.7200E+02
    -34.900  0.2798E-07  0.7200E+02
    -34.664  0.0000E+00  0.7200E+02
    -34.429  0.0000E+00  0.7200E+02
    -34.193  0.0000E+00  0.7200E+02
    -33.958  0.0000E+00  0.7200E+02
    -33.722  0.0000E+00  0.7200E+02
    -33.487  0.0000E+00  0.7200E+02
    -33.251  0.0000E+00  0.7200E+02
    -33.015  0.0000E+00  0.7200E+02
    -32.780  0.0000E+00  0.7200E+02
    -32.544  0.0000E+00  0.7200E+02
    -32.309  0.0000E+00  0.7200E+02
    -32.073  0.0000E+00  0.7200E+02
    -31.838  0.0000E+00  0.7200E+02
    -31.602  0.0000E+00  0.7200E+02
    -31.367  0.0000E+00  0.7200E+02
    -31.131  0.0000E+00  0.7200E+02
    -30.895  0.0000E+00  0.7200E+02
    -30.660  0.0000E+00  0.7200E+02
    -30.424  0.0000E+00  0.7200E+02
    -30.189  0.0000E+00  0.7200E+02
    -29.953  0.0000E+00  0.7200E+02
    -29.718  0.0000E+00  0.7200E+02
    -29.482  0.0000E+00  0.7200E+02
    -29.247  0.0000E+00  0.7200E+02
    -29.011  0.0000E+00  0.7200E+02
    -28.775  0.0000E+00  0.7200E+02
    -28.540  0.0000E+00  0.7200E+02
    -28.304  0.0000E+00  0.7200E+02
    -28.069  0.0000E+00  0.7200E+02
    -27.833  0.0000E+00  0.7200E+02
    -27.598  0.0000E+00  0.7200E+02
    -27.362  0.0000E+00  0.7200E+02
    -27.126  0.0000E+00  0.7200E+02
    -26.891  0.0000E+00  0.7200E+02
    -26.655  0.0000E+00  0.7200E+02
    -26.420  0.0000E+00  0.7200E+02
    -26.184  0.0000E+00  0.7200E+02
    -25.949  0.0000E+00  0.7200E+02
    -25.713  0.0000E+00  0.7200E+02
    -25.478  0.0000E+00  0.7200E+02
    -25.242  0.0000E+00  0.7200E+02
    -25.006  0.0000E+00  0.7200E+02
    -24.771  0.0000E+00  0.7200E+02
    -24.535  0.0000E+00  0.7200E+02
    -24.300  0.0000E+00  0.7200E+02
    -24.064  0.0000E+00  0.7200E+02
    -23.829  0.0000E+00  0.7200E+02
    -23.593  0.0000E+00  0.7200E+02
    -23.358  0.0000E+00  0.7200E+02
    -23.122  0.0000E+00  0.7200E+02
    -22.886  0.0000E+00  0.7200E+02
    -22.651  0.0000E+00  0.7200E+02
    -22.415  0.0000E+00  0.7200E+02
    -22.180  0.0000E+00  0.7200E+02
    -21.944  0.0000E+00  0.7200E+02
    -21.709  0.0000E+00  0.7200E+02
    -21.473  0.0000E+00  0.7200E+02
    -21.237  0.0000E+00  0.7200E+02
    -21.002  0.0000E+00  0.7200E+02
    -20.766  0.0000E+00  0.7200E+02
    -20.531  0.0000E+00  0.7200E+02
    -20.295  0.0000E+00  0.7200E+02
    -20.060  0.0000E+00  0.7200E+02
    -19.824  0.0000E+00  0.7200E+02
    -19.589  0.0000E+00  0.7200E+02
    -19.353  0.0000E+00  0.7200E+02
    -19.117  0.0000E+00  0.7200E+02
    -18.882  0.0000E+00  0.7200E+02
    -18.646  0.0000E+00  0.7200E+02
    -18.411  0.0000E+00  0.7200E+02
    -18.175  0.0000E+00  0.7200E+02
    -17.940  0.0000E+00  0.7200E+02
    -17.704  0.0000E+00  0.7200E+02
    -17.469  0.0000E+00  0.7200E+02
    -17.233  0.0000E+00  0.7200E+02
    -16.997  0.0000E+00  0.7200E+02
    -16.762  0.0000E+00  0.7200E+02
    -16.526  0.0000E+00  0.7200E+02
    -16.291  0.0000E+00  0.7200E+02
    -16.055  0.0000E+00  0.7200E+02
    -15.820  0.0000E+00  0.7200E+02
    -15.584  0.0000E+00  0.7200E+02
    -15.348  0.1296E-14  0.7200E+02
    -15.113  0.1879E-05  0.7200E+02
    -14.877  0.1064E+00  0.7203E+02
    -14.642  0.3016E+01  0.7274E+02
    -14.406  0.4725E+01  0.7385E+02
    -14.171  0.5091E+01  0.7505E+02
    -13.935  0.5559E+01  0.7636E+02
    -13.700  0.6200E+01  0.7782E+02
    -13.464  0.9635E+01  0.8009E+02
    -13.228  0.2029E+02  0.8487E+02
    -12.993  0.2896E+02  0.9169E+02
    -12.757  0.4428E+02  0.1021E+03
    -12.522  0.2451E+02  0.1079E+03
    -12.286  0.4573E+00  0.1080E+03
    -12.051  0.4965E-05  0.1080E+03
    -11.815  0.1623E-14  0.1080E+03
    -11.579  0.0000E+00  0.1080E+03
    -11.344  0.0000E+00  0.1080E+03
    -11.108  0.0000E+00  0.1080E+03
    -10.873  0.0000E+00  0.1080E+03
    -10.637  0.0000E+00  0.1080E+03
    -10.402  0.0000E+00  0.1080E+03
    -10.166  0.0000E+00  0.1080E+03
     -9.931  0.0000E+00  0.1080E+03
     -9.695  0.0000E+00  0.1080E+03
     -9.459  0.0000E+00  0.1080E+03
     -9.224  0.0000E+00  0.1080E+03
     -8.988  0.0000E+00  0.1080E+03
     -8.753  0.0000E+00  0.1080E+03
     -8.517  0.0000E+00  0.1080E+03
     -8.282  0.0000E+00  0.1080E+03
     -8.046  0.0000E+00  0.1080E+03
     -7.811  0.0000E+00  0.1080E+03
     -7.575  0.0000E+00  0.1080E+03
     -7.339  0.0000E+00  0.1080E+03
     -7.104  0.0000E+00  0.1080E+03
     -6.868  0.1592E-07  0.1080E+03
     -6.633  0.1935E-01  0.1080E+03
     -6.397  0.3806E+01  0.1089E+03
     -6.162  0.1355E+02  0.1121E+03
     -5.926  0.2420E+02  0.1178E+03
     -5.690  0.3688E+02  0.1265E+03
     -5.455  0.2229E+02  0.1317E+03
     -5.219  0.1111E+02  0.1343E+03
     -4.984  0.6985E+01  0.1360E+03
     -4.748  0.1186E+02  0.1388E+03
     -4.513  0.4352E+02  0.1490E+03
     -4.277  0.2560E+02  0.1551E+03
     -4.042  0.1391E+02  0.1583E+03
     -3.806  0.4229E+02  0.1683E+03
     -3.570  0.2667E+02  0.1746E+03
     -3.335  0.1491E+02  0.1781E+03
     -3.099  0.1504E+02  0.1816E+03
     -2.864  0.1647E+02  0.1855E+03
     -2.628  0.2745E+02  0.1920E+03
     -2.393  0.3654E+02  0.2006E+03
     -2.157  0.2313E+02  0.2060E+03
     -1.922  0.1886E+02  0.2105E+03
     -1.686  0.2192E+02  0.2157E+03
     -1.450  0.2517E+02  0.2216E+03
     -1.215  0.2362E+02  0.2271E+03
     -0.979  0.1685E+02  0.2311E+03
     -0.744  0.1065E+02  0.2336E+03
     -0.508  0.1580E+01  0.2340E+03
     -0.273  0.5923E-03  0.2340E+03
     -0.037  0.1438E-10  0.2340E+03
      0.199  0.0000E+00  0.2340E+03
      0.434  0.1074E-12  0.2340E+03
      0.670  0.2212E-04  0.2340E+03
      0.905  0.2251E+00  0.2341E+03
      1.141  0.3657E+01  0.2349E+03
      1.376  0.2377E+02  0.2405E+03
      1.612  0.4514E+02  0.2511E+03
      1.847  0.4257E+02  0.2612E+03
      2.083  0.3841E+02  0.2702E+03
      2.319  0.2463E+02  0.2760E+03
      2.554  0.1547E+02  0.2797E+03
      2.790  0.1405E+01  0.2800E+03
      3.025  0.4222E-02  0.2800E+03
      3.261  0.3372E-08  0.2800E+03
      3.496  0.0000E+00  0.2800E+03
      3.732  0.0000E+00  0.2800E+03
      3.967  0.0000E+00  0.2800E+03
      4.203  0.0000E+00  0.2800E+03
      4.439  0.0000E+00  0.2800E+03
      4.674  0.0000E+00  0.2800E+03
      4.910  0.0000E+00  0.2800E+03
      5.145  0.0000E+00  0.2800E+03
      5.381  0.0000E+00  0.2800E+03
      5.616  0.0000E+00  0.2800E+03
      5.852  0.0000E+00  0.2800E+03
