<?xml version="1.0" encoding="ISO-8859-1"?>
<modeling>
 <generator>
  <i name="program" type="string">vasp </i>
  <i name="version" type="string">5.4.4.18Apr17-6-g9f103f2a35  </i>
  <i name="subversion" type="string">(build Apr 28 2023 10:04:10) complex            parallel </i>
  <i name="platform" type="string">LinuxIFC </i>
  <i name="date" type="string">2023 11 10 </i>
  <i name="time" type="string">22:07:24 </i>
 </generator>
 <incar>
  <i type="string" name="PREC">accurate</i>
  <i type="int" name="IALGO">    38</i>
  <i type="int" name="IBRION">    -1</i>
  <i name="EDIFF">      0.00000001</i>
  <i name="ENCUT">    500.00000000</i>
  <i type="logical" name="LREAL"> F  </i>
  <i type="int" name="ISMEAR">     0</i>
  <i name="SIGMA">      0.10000000</i>
  <i type="logical" name="LWAVE"> F  </i>
  <i type="logical" name="LCHARG"> F  </i>
  <v type="int" name="KPOINT_BSE">    -1     0     0     0</v>
 </incar>
 <structure name="primitive_cell" >
  <crystal>
   <varray name="basis" >
    <v>       9.55158141       0.00000000       0.00000000 </v>
    <v>      -4.77579070       8.27191214       0.00000000 </v>
    <v>       0.00000000       0.00000000      15.00000000 </v>
   </varray>
   <i name="volume">   1185.14763341 </i>
   <varray name="rec_basis" >
    <v>       0.10469471       0.06044552       0.00000000 </v>
    <v>       0.00000000       0.12089103       0.00000000 </v>
    <v>       0.00000000       0.00000000       0.06666667 </v>
   </varray>
  </crystal>
  <varray name="positions" >
   <v>       0.22278457       0.11111111       0.25056234 </v>
   <v>       0.44444445       0.22222223       0.35415213 </v>
   <v>       0.11111111      -0.11111110       0.35415213 </v>
   <v>       0.11111111       0.22222223       0.35415213 </v>
   <v>       0.44444445       0.22222223       0.14584787 </v>
   <v>       0.11111111      -0.11111110       0.14584787 </v>
   <v>       0.11111111       0.22222223       0.14584787 </v>
   <v>      -0.44444444       0.11111111       0.25000000 </v>
   <v>      -0.44444444       0.44444445       0.25000000 </v>
   <v>       0.22222223      -0.22222222       0.25000000 </v>
   <v>      -0.11111110      -0.22222222       0.25000000 </v>
   <v>       0.22222223       0.44444445       0.25000000 </v>
   <v>      -0.11111110       0.11111111       0.25000000 </v>
   <v>       0.44444445      -0.11111110       0.35415213 </v>
   <v>       0.44444445      -0.44444444       0.35415213 </v>
   <v>       0.44444445      -0.11111110       0.14584787 </v>
   <v>      -0.22222222      -0.11111110       0.35415213 </v>
   <v>       0.44444445      -0.44444444       0.14584787 </v>
   <v>      -0.22222222      -0.11111110       0.14584787 </v>
   <v>      -0.22222222       0.22222223       0.35415213 </v>
   <v>      -0.22222222      -0.44444444       0.35415213 </v>
   <v>       0.11111111      -0.44444444       0.35415213 </v>
   <v>      -0.22222222       0.22222223       0.14584787 </v>
   <v>      -0.22222222      -0.44444444       0.14584787 </v>
   <v>       0.11111111      -0.44444444       0.14584787 </v>
   <v>      -0.11111110       0.44444445       0.25000000 </v>
   <v>      -0.44444444      -0.22222222       0.25000000 </v>
  </varray>
 </structure>
 <varray name="primitive_index" >
  <v type="int" >        1 </v>
  <v type="int" >       11 </v>
  <v type="int" >       16 </v>
  <v type="int" >       10 </v>
  <v type="int" >       20 </v>
  <v type="int" >       25 </v>
  <v type="int" >       19 </v>
  <v type="int" >        2 </v>
  <v type="int" >        5 </v>
  <v type="int" >        7 </v>
  <v type="int" >        9 </v>
  <v type="int" >        4 </v>
  <v type="int" >        3 </v>
  <v type="int" >       17 </v>
  <v type="int" >       14 </v>
  <v type="int" >       26 </v>
  <v type="int" >       18 </v>
  <v type="int" >       23 </v>
  <v type="int" >       27 </v>
  <v type="int" >       12 </v>
  <v type="int" >       15 </v>
  <v type="int" >       13 </v>
  <v type="int" >       21 </v>
  <v type="int" >       24 </v>
  <v type="int" >       22 </v>
  <v type="int" >        6 </v>
  <v type="int" >        8 </v>
 </varray>
 <kpoints>
  <generation param="Monkhorst-Pack">
   <v type="int" name="divisions">      12       12        1 </v>
   <v name="usershift">      0.00000000       0.00000000       0.00000000 </v>
   <v name="genvec1">      0.08333333      -0.00000000       0.00000000 </v>
   <v name="genvec2">      0.00000000       0.08333333       0.00000000 </v>
   <v name="genvec3">      0.00000000       0.00000000       1.00000000 </v>
   <v name="shift">      0.50000000       0.50000000       0.00000000 </v>
  </generation>
  <varray name="kpointlist" >
   <v>       0.04166667       0.04166667       0.00000000 </v>
   <v>       0.08333333      -0.04166667       0.00000000 </v>
   <v>       0.04166667      -0.08333333       0.00000000 </v>
   <v>       0.12500000       0.04166667       0.00000000 </v>
   <v>       0.16666667      -0.12500000       0.00000000 </v>
   <v>       0.04166667      -0.16666667       0.00000000 </v>
   <v>      -0.04166667      -0.12500000       0.00000000 </v>
   <v>       0.12500000      -0.16666667       0.00000000 </v>
   <v>       0.16666667      -0.04166667       0.00000000 </v>
   <v>       0.20833333       0.04166667       0.00000000 </v>
   <v>       0.25000000      -0.20833333       0.00000000 </v>
   <v>       0.04166667      -0.25000000       0.00000000 </v>
   <v>      -0.04166667      -0.20833333       0.00000000 </v>
   <v>       0.20833333      -0.25000000       0.00000000 </v>
   <v>       0.25000000      -0.04166667       0.00000000 </v>
   <v>       0.29166667       0.04166667       0.00000000 </v>
   <v>       0.33333333      -0.29166667       0.00000000 </v>
   <v>       0.04166667      -0.33333333       0.00000000 </v>
   <v>      -0.04166667      -0.29166667       0.00000000 </v>
   <v>       0.29166667      -0.33333333       0.00000000 </v>
   <v>       0.33333333      -0.04166667       0.00000000 </v>
   <v>       0.37500000       0.04166667       0.00000000 </v>
   <v>       0.41666667      -0.37500000       0.00000000 </v>
   <v>       0.04166667      -0.41666667       0.00000000 </v>
   <v>      -0.04166667      -0.37500000       0.00000000 </v>
   <v>       0.37500000      -0.41666667       0.00000000 </v>
   <v>       0.41666667      -0.04166667       0.00000000 </v>
   <v>       0.45833333       0.04166667       0.00000000 </v>
   <v>       0.50000000      -0.45833333       0.00000000 </v>
   <v>       0.04166667       0.50000000       0.00000000 </v>
   <v>      -0.04166667      -0.45833333       0.00000000 </v>
   <v>       0.45833333       0.50000000       0.00000000 </v>
   <v>       0.50000000      -0.04166667       0.00000000 </v>
   <v>      -0.45833333       0.04166667       0.00000000 </v>
   <v>      -0.41666667       0.45833333       0.00000000 </v>
   <v>       0.04166667       0.41666667       0.00000000 </v>
   <v>      -0.04166667       0.45833333       0.00000000 </v>
   <v>      -0.45833333       0.41666667       0.00000000 </v>
   <v>      -0.41666667      -0.04166667       0.00000000 </v>
   <v>      -0.37500000       0.04166667       0.00000000 </v>
   <v>      -0.33333333       0.37500000       0.00000000 </v>
   <v>       0.04166667       0.33333333       0.00000000 </v>
   <v>      -0.04166667       0.37500000       0.00000000 </v>
   <v>      -0.37500000       0.33333333       0.00000000 </v>
   <v>      -0.33333333      -0.04166667       0.00000000 </v>
   <v>      -0.29166667       0.04166667       0.00000000 </v>
   <v>      -0.25000000       0.29166667       0.00000000 </v>
   <v>       0.04166667       0.25000000       0.00000000 </v>
   <v>      -0.04166667       0.29166667       0.00000000 </v>
   <v>      -0.29166667       0.25000000       0.00000000 </v>
   <v>      -0.25000000      -0.04166667       0.00000000 </v>
   <v>      -0.20833333       0.04166667       0.00000000 </v>
   <v>      -0.16666667       0.20833333       0.00000000 </v>
   <v>       0.04166667       0.16666667       0.00000000 </v>
   <v>      -0.04166667       0.20833333       0.00000000 </v>
   <v>      -0.20833333       0.16666667       0.00000000 </v>
   <v>      -0.16666667      -0.04166667       0.00000000 </v>
   <v>      -0.12500000       0.04166667       0.00000000 </v>
   <v>      -0.08333333       0.12500000       0.00000000 </v>
   <v>       0.04166667       0.08333333       0.00000000 </v>
   <v>      -0.04166667       0.12500000       0.00000000 </v>
   <v>      -0.12500000       0.08333333       0.00000000 </v>
   <v>      -0.08333333      -0.04166667       0.00000000 </v>
   <v>      -0.04166667       0.04166667       0.00000000 </v>
   <v>       0.00000000       0.04166667       0.00000000 </v>
   <v>       0.04166667       0.00000000       0.00000000 </v>
   <v>       0.12500000       0.12500000       0.00000000 </v>
   <v>       0.25000000      -0.12500000       0.00000000 </v>
   <v>       0.12500000      -0.25000000       0.00000000 </v>
   <v>       0.20833333       0.12500000       0.00000000 </v>
   <v>       0.33333333      -0.20833333       0.00000000 </v>
   <v>       0.12500000      -0.33333333       0.00000000 </v>
   <v>      -0.12500000      -0.20833333       0.00000000 </v>
   <v>       0.20833333      -0.33333333       0.00000000 </v>
   <v>       0.33333333      -0.12500000       0.00000000 </v>
   <v>       0.29166667       0.12500000       0.00000000 </v>
   <v>       0.41666667      -0.29166667       0.00000000 </v>
   <v>       0.12500000      -0.41666667       0.00000000 </v>
   <v>      -0.12500000      -0.29166667       0.00000000 </v>
   <v>       0.29166667      -0.41666667       0.00000000 </v>
   <v>       0.41666667      -0.12500000       0.00000000 </v>
   <v>       0.37500000       0.12500000       0.00000000 </v>
   <v>       0.50000000      -0.37500000       0.00000000 </v>
   <v>       0.12500000       0.50000000       0.00000000 </v>
   <v>      -0.12500000      -0.37500000       0.00000000 </v>
   <v>       0.37500000       0.50000000       0.00000000 </v>
   <v>       0.50000000      -0.12500000       0.00000000 </v>
   <v>       0.45833333       0.12500000       0.00000000 </v>
   <v>      -0.41666667      -0.45833333       0.00000000 </v>
   <v>       0.12500000       0.41666667       0.00000000 </v>
   <v>      -0.12500000      -0.45833333       0.00000000 </v>
   <v>       0.45833333       0.41666667       0.00000000 </v>
   <v>      -0.41666667      -0.12500000       0.00000000 </v>
   <v>      -0.45833333       0.12500000       0.00000000 </v>
   <v>      -0.33333333       0.45833333       0.00000000 </v>
   <v>       0.12500000       0.33333333       0.00000000 </v>
   <v>      -0.12500000       0.45833333       0.00000000 </v>
   <v>      -0.45833333       0.33333333       0.00000000 </v>
   <v>      -0.33333333      -0.12500000       0.00000000 </v>
   <v>      -0.37500000       0.12500000       0.00000000 </v>
   <v>      -0.25000000       0.37500000       0.00000000 </v>
   <v>       0.12500000       0.25000000       0.00000000 </v>
   <v>      -0.12500000       0.37500000       0.00000000 </v>
   <v>      -0.37500000       0.25000000       0.00000000 </v>
   <v>      -0.25000000      -0.12500000       0.00000000 </v>
   <v>      -0.29166667       0.12500000       0.00000000 </v>
   <v>      -0.16666667       0.29166667       0.00000000 </v>
   <v>       0.12500000       0.16666667       0.00000000 </v>
   <v>      -0.12500000       0.29166667       0.00000000 </v>
   <v>      -0.29166667       0.16666667       0.00000000 </v>
   <v>      -0.16666667      -0.12500000       0.00000000 </v>
   <v>      -0.20833333       0.12500000       0.00000000 </v>
   <v>      -0.08333333       0.20833333       0.00000000 </v>
   <v>       0.12500000       0.08333333       0.00000000 </v>
   <v>      -0.12500000       0.20833333       0.00000000 </v>
   <v>      -0.20833333       0.08333333       0.00000000 </v>
   <v>      -0.08333333      -0.12500000       0.00000000 </v>
   <v>      -0.12500000       0.12500000       0.00000000 </v>
   <v>       0.00000000       0.12500000       0.00000000 </v>
   <v>       0.12500000       0.00000000       0.00000000 </v>
   <v>       0.20833333       0.20833333       0.00000000 </v>
   <v>       0.41666667      -0.20833333       0.00000000 </v>
   <v>       0.20833333      -0.41666667       0.00000000 </v>
   <v>       0.29166667       0.20833333       0.00000000 </v>
   <v>       0.50000000      -0.29166667       0.00000000 </v>
   <v>       0.20833333       0.50000000       0.00000000 </v>
   <v>      -0.20833333      -0.29166667       0.00000000 </v>
   <v>       0.29166667       0.50000000       0.00000000 </v>
   <v>       0.50000000      -0.20833333       0.00000000 </v>
   <v>       0.37500000       0.20833333       0.00000000 </v>
   <v>      -0.41666667      -0.37500000       0.00000000 </v>
   <v>       0.20833333       0.41666667       0.00000000 </v>
   <v>      -0.20833333      -0.37500000       0.00000000 </v>
   <v>       0.37500000       0.41666667       0.00000000 </v>
   <v>      -0.41666667      -0.20833333       0.00000000 </v>
   <v>       0.45833333       0.20833333       0.00000000 </v>
   <v>      -0.33333333      -0.45833333       0.00000000 </v>
   <v>       0.20833333       0.33333333       0.00000000 </v>
   <v>      -0.20833333      -0.45833333       0.00000000 </v>
   <v>       0.45833333       0.33333333       0.00000000 </v>
   <v>      -0.33333333      -0.20833333       0.00000000 </v>
   <v>      -0.45833333       0.20833333       0.00000000 </v>
   <v>      -0.25000000       0.45833333       0.00000000 </v>
   <v>       0.20833333       0.25000000       0.00000000 </v>
   <v>      -0.20833333       0.45833333       0.00000000 </v>
   <v>      -0.45833333       0.25000000       0.00000000 </v>
   <v>      -0.25000000      -0.20833333       0.00000000 </v>
   <v>      -0.37500000       0.20833333       0.00000000 </v>
   <v>      -0.16666667       0.37500000       0.00000000 </v>
   <v>       0.20833333       0.16666667       0.00000000 </v>
   <v>      -0.20833333       0.37500000       0.00000000 </v>
   <v>      -0.37500000       0.16666667       0.00000000 </v>
   <v>      -0.16666667      -0.20833333       0.00000000 </v>
   <v>      -0.29166667       0.20833333       0.00000000 </v>
   <v>      -0.08333333       0.29166667       0.00000000 </v>
   <v>       0.20833333       0.08333333       0.00000000 </v>
   <v>      -0.20833333       0.29166667       0.00000000 </v>
   <v>      -0.29166667       0.08333333       0.00000000 </v>
   <v>      -0.08333333      -0.20833333       0.00000000 </v>
   <v>      -0.20833333       0.20833333       0.00000000 </v>
   <v>       0.00000000       0.20833333       0.00000000 </v>
   <v>       0.20833333       0.00000000       0.00000000 </v>
   <v>       0.29166667       0.29166667       0.00000000 </v>
   <v>      -0.41666667      -0.29166667       0.00000000 </v>
   <v>       0.29166667       0.41666667       0.00000000 </v>
   <v>       0.37500000       0.29166667       0.00000000 </v>
   <v>      -0.33333333      -0.37500000       0.00000000 </v>
   <v>       0.29166667       0.33333333       0.00000000 </v>
   <v>      -0.29166667      -0.37500000       0.00000000 </v>
   <v>       0.37500000       0.33333333       0.00000000 </v>
   <v>      -0.33333333      -0.29166667       0.00000000 </v>
   <v>       0.45833333       0.29166667       0.00000000 </v>
   <v>      -0.25000000      -0.45833333       0.00000000 </v>
   <v>       0.29166667       0.25000000       0.00000000 </v>
   <v>      -0.29166667      -0.45833333       0.00000000 </v>
   <v>       0.45833333       0.25000000       0.00000000 </v>
   <v>      -0.25000000      -0.29166667       0.00000000 </v>
   <v>      -0.45833333       0.29166667       0.00000000 </v>
   <v>      -0.16666667       0.45833333       0.00000000 </v>
   <v>       0.29166667       0.16666667       0.00000000 </v>
   <v>      -0.29166667       0.45833333       0.00000000 </v>
   <v>      -0.45833333       0.16666667       0.00000000 </v>
   <v>      -0.16666667      -0.29166667       0.00000000 </v>
   <v>      -0.37500000       0.29166667       0.00000000 </v>
   <v>      -0.08333333       0.37500000       0.00000000 </v>
   <v>       0.29166667       0.08333333       0.00000000 </v>
   <v>      -0.29166667       0.37500000       0.00000000 </v>
   <v>      -0.37500000       0.08333333       0.00000000 </v>
   <v>      -0.08333333      -0.29166667       0.00000000 </v>
   <v>      -0.29166667       0.29166667       0.00000000 </v>
   <v>       0.00000000       0.29166667       0.00000000 </v>
   <v>       0.29166667       0.00000000       0.00000000 </v>
   <v>       0.37500000       0.37500000       0.00000000 </v>
   <v>      -0.25000000      -0.37500000       0.00000000 </v>
   <v>       0.37500000       0.25000000       0.00000000 </v>
   <v>       0.45833333       0.37500000       0.00000000 </v>
   <v>      -0.16666667      -0.45833333       0.00000000 </v>
   <v>       0.37500000       0.16666667       0.00000000 </v>
   <v>      -0.37500000      -0.45833333       0.00000000 </v>
   <v>       0.45833333       0.16666667       0.00000000 </v>
   <v>      -0.16666667      -0.37500000       0.00000000 </v>
   <v>      -0.45833333       0.37500000       0.00000000 </v>
   <v>      -0.08333333       0.45833333       0.00000000 </v>
   <v>       0.37500000       0.08333333       0.00000000 </v>
   <v>      -0.37500000       0.45833333       0.00000000 </v>
   <v>      -0.45833333       0.08333333       0.00000000 </v>
   <v>      -0.08333333      -0.37500000       0.00000000 </v>
   <v>      -0.37500000       0.37500000       0.00000000 </v>
   <v>       0.00000000       0.37500000       0.00000000 </v>
   <v>       0.37500000       0.00000000       0.00000000 </v>
   <v>       0.45833333       0.45833333       0.00000000 </v>
   <v>      -0.08333333      -0.45833333       0.00000000 </v>
   <v>       0.45833333       0.08333333       0.00000000 </v>
   <v>      -0.45833333       0.45833333       0.00000000 </v>
   <v>       0.00000000       0.45833333       0.00000000 </v>
   <v>       0.45833333       0.00000000       0.00000000 </v>
  </varray>
  <varray name="weights" >
   <v>       0.00462963 </v>
   <v>       0.00462963 </v>
   <v>       0.00462963 </v>
   <v>       0.00462963 </v>
   <v>       0.00462963 </v>
   <v>       0.00462963 </v>
   <v>       0.00462963 </v>
   <v>       0.00462963 </v>
   <v>       0.00462963 </v>
   <v>       0.00462963 </v>
   <v>       0.00462963 </v>
   <v>       0.00462963 </v>
   <v>       0.00462963 </v>
   <v>       0.00462963 </v>
   <v>       0.00462963 </v>
   <v>       0.00462963 </v>
   <v>       0.00462963 </v>
   <v>       0.00462963 </v>
   <v>       0.00462963 </v>
   <v>       0.00462963 </v>
   <v>       0.00462963 </v>
   <v>       0.00462963 </v>
   <v>       0.00462963 </v>
   <v>       0.00462963 </v>
   <v>       0.00462963 </v>
   <v>       0.00462963 </v>
   <v>       0.00462963 </v>
   <v>       0.00462963 </v>
   <v>       0.00462963 </v>
   <v>       0.00462963 </v>
   <v>       0.00462963 </v>
   <v>       0.00462963 </v>
   <v>       0.00462963 </v>
   <v>       0.00462963 </v>
   <v>       0.00462963 </v>
   <v>       0.00462963 </v>
   <v>       0.00462963 </v>
   <v>       0.00462963 </v>
   <v>       0.00462963 </v>
   <v>       0.00462963 </v>
   <v>       0.00462963 </v>
   <v>       0.00462963 </v>
   <v>       0.00462963 </v>
   <v>       0.00462963 </v>
   <v>       0.00462963 </v>
   <v>       0.00462963 </v>
   <v>       0.00462963 </v>
   <v>       0.00462963 </v>
   <v>       0.00462963 </v>
   <v>       0.00462963 </v>
   <v>       0.00462963 </v>
   <v>       0.00462963 </v>
   <v>       0.00462963 </v>
   <v>       0.00462963 </v>
   <v>       0.00462963 </v>
   <v>       0.00462963 </v>
   <v>       0.00462963 </v>
   <v>       0.00462963 </v>
   <v>       0.00462963 </v>
   <v>       0.00462963 </v>
   <v>       0.00462963 </v>
   <v>       0.00462963 </v>
   <v>       0.00462963 </v>
   <v>       0.00462963 </v>
   <v>       0.00462963 </v>
   <v>       0.00462963 </v>
   <v>       0.00462963 </v>
   <v>       0.00462963 </v>
   <v>       0.00462963 </v>
   <v>       0.00462963 </v>
   <v>       0.00462963 </v>
   <v>       0.00462963 </v>
   <v>       0.00462963 </v>
   <v>       0.00462963 </v>
   <v>       0.00462963 </v>
   <v>       0.00462963 </v>
   <v>       0.00462963 </v>
   <v>       0.00462963 </v>
   <v>       0.00462963 </v>
   <v>       0.00462963 </v>
   <v>       0.00462963 </v>
   <v>       0.00462963 </v>
   <v>       0.00462963 </v>
   <v>       0.00462963 </v>
   <v>       0.00462963 </v>
   <v>       0.00462963 </v>
   <v>       0.00462963 </v>
   <v>       0.00462963 </v>
   <v>       0.00462963 </v>
   <v>       0.00462963 </v>
   <v>       0.00462963 </v>
   <v>       0.00462963 </v>
   <v>       0.00462963 </v>
   <v>       0.00462963 </v>
   <v>       0.00462963 </v>
   <v>       0.00462963 </v>
   <v>       0.00462963 </v>
   <v>       0.00462963 </v>
   <v>       0.00462963 </v>
   <v>       0.00462963 </v>
   <v>       0.00462963 </v>
   <v>       0.00462963 </v>
   <v>       0.00462963 </v>
   <v>       0.00462963 </v>
   <v>       0.00462963 </v>
   <v>       0.00462963 </v>
   <v>       0.00462963 </v>
   <v>       0.00462963 </v>
   <v>       0.00462963 </v>
   <v>       0.00462963 </v>
   <v>       0.00462963 </v>
   <v>       0.00462963 </v>
   <v>       0.00462963 </v>
   <v>       0.00462963 </v>
   <v>       0.00462963 </v>
   <v>       0.00462963 </v>
   <v>       0.00462963 </v>
   <v>       0.00462963 </v>
   <v>       0.00462963 </v>
   <v>       0.00462963 </v>
   <v>       0.00462963 </v>
   <v>       0.00462963 </v>
   <v>       0.00462963 </v>
   <v>       0.00462963 </v>
   <v>       0.00462963 </v>
   <v>       0.00462963 </v>
   <v>       0.00462963 </v>
   <v>       0.00462963 </v>
   <v>       0.00462963 </v>
   <v>       0.00462963 </v>
   <v>       0.00462963 </v>
   <v>       0.00462963 </v>
   <v>       0.00462963 </v>
   <v>       0.00462963 </v>
   <v>       0.00462963 </v>
   <v>       0.00462963 </v>
   <v>       0.00462963 </v>
   <v>       0.00462963 </v>
   <v>       0.00462963 </v>
   <v>       0.00462963 </v>
   <v>       0.00462963 </v>
   <v>       0.00462963 </v>
   <v>       0.00462963 </v>
   <v>       0.00462963 </v>
   <v>       0.00462963 </v>
   <v>       0.00462963 </v>
   <v>       0.00462963 </v>
   <v>       0.00462963 </v>
   <v>       0.00462963 </v>
   <v>       0.00462963 </v>
   <v>       0.00462963 </v>
   <v>       0.00462963 </v>
   <v>       0.00462963 </v>
   <v>       0.00462963 </v>
   <v>       0.00462963 </v>
   <v>       0.00462963 </v>
   <v>       0.00462963 </v>
   <v>       0.00462963 </v>
   <v>       0.00462963 </v>
   <v>       0.00462963 </v>
   <v>       0.00462963 </v>
   <v>       0.00462963 </v>
   <v>       0.00462963 </v>
   <v>       0.00462963 </v>
   <v>       0.00462963 </v>
   <v>       0.00462963 </v>
   <v>       0.00462963 </v>
   <v>       0.00462963 </v>
   <v>       0.00462963 </v>
   <v>       0.00462963 </v>
   <v>       0.00462963 </v>
   <v>       0.00462963 </v>
   <v>       0.00462963 </v>
   <v>       0.00462963 </v>
   <v>       0.00462963 </v>
   <v>       0.00462963 </v>
   <v>       0.00462963 </v>
   <v>       0.00462963 </v>
   <v>       0.00462963 </v>
   <v>       0.00462963 </v>
   <v>       0.00462963 </v>
   <v>       0.00462963 </v>
   <v>       0.00462963 </v>
   <v>       0.00462963 </v>
   <v>       0.00462963 </v>
   <v>       0.00462963 </v>
   <v>       0.00462963 </v>
   <v>       0.00462963 </v>
   <v>       0.00462963 </v>
   <v>       0.00462963 </v>
   <v>       0.00462963 </v>
   <v>       0.00462963 </v>
   <v>       0.00462963 </v>
   <v>       0.00462963 </v>
   <v>       0.00462963 </v>
   <v>       0.00462963 </v>
   <v>       0.00462963 </v>
   <v>       0.00462963 </v>
   <v>       0.00462963 </v>
   <v>       0.00462963 </v>
   <v>       0.00462963 </v>
   <v>       0.00462963 </v>
   <v>       0.00462963 </v>
   <v>       0.00462963 </v>
   <v>       0.00462963 </v>
   <v>       0.00462963 </v>
   <v>       0.00462963 </v>
   <v>       0.00462963 </v>
   <v>       0.00462963 </v>
   <v>       0.00462963 </v>
   <v>       0.00462963 </v>
   <v>       0.00462963 </v>
   <v>       0.00462963 </v>
   <v>       0.00462963 </v>
   <v>       0.00462963 </v>
   <v>       0.00462963 </v>
  </varray>
 </kpoints>
 <parameters>
  <separator name="general" >
   <i type="string" name="SYSTEM">unknown system</i>
   <i type="logical" name="LCOMPAT"> F  </i>
  </separator>
  <separator name="electronic" >
   <i type="string" name="PREC">accura</i>
   <i name="ENMAX">    500.00000000</i>
   <i name="ENAUG">    446.01400000</i>
   <i name="EDIFF">      0.00000001</i>
   <i type="int" name="IALGO">    38</i>
   <i type="int" name="IWAVPR">    10</i>
   <i type="int" name="NBANDS">   140</i>
   <i name="NELECT">    234.00000000</i>
   <i type="int" name="TURBO">     0</i>
   <i type="int" name="IRESTART">     0</i>
   <i type="int" name="NREBOOT">     0</i>
   <i type="int" name="NMIN">     0</i>
   <i name="EREF">      0.00000000</i>
   <separator name="electronic smearing" >
    <i type="int" name="ISMEAR">     0</i>
    <i name="SIGMA">      0.10000000</i>
    <i name="KSPACING">      0.50000000</i>
    <i type="logical" name="KGAMMA"> T  </i>
   </separator>
   <separator name="electronic projectors" >
    <i type="logical" name="LREAL"> F  </i>
    <v name="ROPT">      0.00000000      0.00000000</v>
    <i type="int" name="LMAXPAW">  -100</i>
    <i type="int" name="LMAXMIX">     2</i>
    <i type="logical" name="NLSPLINE"> F  </i>
   </separator>
   <separator name="electronic startup" >
    <i type="int" name="ISTART">     0</i>
    <i type="int" name="ICHARG">     2</i>
    <i type="int" name="INIWAV">     1</i>
   </separator>
   <separator name="electronic spin" >
    <i type="int" name="ISPIN">     1</i>
    <i type="logical" name="LNONCOLLINEAR"> F  </i>
    <v name="MAGMOM">      1.00000000      1.00000000      1.00000000      1.00000000      1.00000000      1.00000000      1.00000000      1.00000000      1.00000000      1.00000000      1.00000000      1.00000000      1.00000000      1.00000000      1.00000000      1.00000000      1.00000000      1.00000000      1.00000000      1.00000000
      1.00000000      1.00000000      1.00000000      1.00000000      1.00000000      1.00000000      1.00000000</v>
    <i name="NUPDOWN">     -1.00000000</i>
    <i type="logical" name="LSORBIT"> F  </i>
    <v name="SAXIS">      0.00000000      0.00000000      1.00000000</v>
    <i type="logical" name="LSPIRAL"> F  </i>
    <v name="QSPIRAL">      0.00000000      0.00000000      0.00000000</v>
    <i type="logical" name="LZEROZ"> F  </i>
   </separator>
   <separator name="electronic exchange-correlation" >
    <i type="logical" name="LASPH"> F  </i>
    <i type="logical" name="LMETAGGA"> F  </i>
   </separator>
   <separator name="electronic convergence" >
    <i type="int" name="NELM">    60</i>
    <i type="int" name="NELMDL">    -5</i>
    <i type="int" name="NELMIN">     2</i>
    <i name="ENINI">    500.00000000</i>
    <separator name="electronic convergence detail" >
     <i type="logical" name="LDIAG"> T  </i>
     <i type="logical" name="LSUBROT"> F  </i>
     <i name="WEIMIN">      0.00000000</i>
     <i name="EBREAK">      0.00000000</i>
     <i name="DEPER">      0.30000000</i>
     <i type="int" name="NRMM">     4</i>
     <i name="TIME">      0.40000000</i>
    </separator>
   </separator>
   <separator name="electronic mixer" >
    <i name="AMIX">      0.40000000</i>
    <i name="BMIX">      1.00000000</i>
    <i name="AMIN">      0.10000000</i>
    <i name="AMIX_MAG">      1.60000000</i>
    <i name="BMIX_MAG">      1.00000000</i>
    <separator name="electronic mixer details" >
     <i type="int" name="IMIX">     4</i>
     <i type="logical" name="MIXFIRST"> F  </i>
     <i type="int" name="MAXMIX">   -45</i>
     <i name="WC">    100.00000000</i>
     <i type="int" name="INIMIX">     1</i>
     <i type="int" name="MIXPRE">     1</i>
     <i type="int" name="MREMOVE">     5</i>
    </separator>
   </separator>
   <separator name="electronic dipolcorrection" >
    <i type="logical" name="LDIPOL"> F  </i>
    <i type="logical" name="LMONO"> F  </i>
    <i type="int" name="IDIPOL">     0</i>
    <i name="EPSILON">      1.00000000</i>
    <v name="DIPOL">   -100.00000000   -100.00000000   -100.00000000</v>
    <i name="EFIELD">      0.00000000</i>
   </separator>
  </separator>
  <separator name="grids" >
   <i type="int" name="NGX">    70</i>
   <i type="int" name="NGY">    70</i>
   <i type="int" name="NGZ">   112</i>
   <i type="int" name="NGXF">   140</i>
   <i type="int" name="NGYF">   140</i>
   <i type="int" name="NGZF">   224</i>
   <i type="logical" name="ADDGRID"> F  </i>
  </separator>
  <separator name="ionic" >
   <i type="int" name="NSW">     0</i>
   <i type="int" name="IBRION">    -1</i>
   <i type="int" name="MDALGO">     0</i>
   <i type="int" name="ISIF">     2</i>
   <i name="PSTRESS">      0.00000000</i>
   <i name="EDIFFG">      0.00000010</i>
   <i type="int" name="NFREE">     0</i>
   <i name="POTIM">      0.50000000</i>
   <i name="SMASS">     -3.00000000</i>
   <i name="SCALEE">      1.00000000</i>
  </separator>
  <separator name="ionic md" >
   <i name="TEBEG">      0.00010000</i>
   <i name="TEEND">      0.00010000</i>
   <i type="int" name="NBLOCK">     1</i>
   <i type="int" name="KBLOCK">     1</i>
   <i type="int" name="NPACO">   256</i>
   <i name="APACO">     16.00000000</i>
  </separator>
  <separator name="symmetry" >
   <i type="int" name="ISYM">     2</i>
   <i name="SYMPREC">      0.00001000</i>
  </separator>
  <separator name="dos" >
   <i type="int" name="LORBIT">     0</i>
   <v name="RWIGS">     -1.00000000     -1.00000000</v>
   <i type="int" name="NEDOS">   301</i>
   <i name="EMIN">     10.00000000</i>
   <i name="EMAX">    -10.00000000</i>
   <i name="EFERMI">      0.00000000</i>
  </separator>
  <separator name="writing" >
   <i type="int" name="NWRITE">     2</i>
   <i type="logical" name="LWAVE"> F  </i>
   <i type="logical" name="LDOWNSAMPLE"> F  </i>
   <i type="logical" name="LCHARG"> F  </i>
   <i type="logical" name="LPARD"> F  </i>
   <i type="logical" name="LVTOT"> F  </i>
   <i type="logical" name="LVHAR"> F  </i>
   <i type="logical" name="LELF"> F  </i>
   <i type="logical" name="LOPTICS"> F  </i>
   <v name="STM">      0.00000000      0.00000000      0.00000000      0.00000000      0.00000000      0.00000000      0.00000000</v>
  </separator>
  <separator name="performance" >
   <i type="int" name="NPAR">     2</i>
   <i type="int" name="NSIM">     4</i>
   <i type="int" name="NBLK">    -1</i>
   <i type="logical" name="LPLANE"> T  </i>
   <i type="logical" name="LSCALAPACK"> T  </i>
   <i type="logical" name="LSCAAWARE"> F  </i>
   <i type="logical" name="LSCALU"> F  </i>
   <i type="logical" name="LASYNC"> F  </i>
   <i type="logical" name="LORBITALREAL"> F  </i>
  </separator>
  <separator name="miscellaneous" >
   <i type="int" name="IDIOT">     3</i>
   <i type="int" name="ISPECIAL">     0</i>
   <i type="logical" name="LMUSIC"> F  </i>
   <v name="POMASS">     95.94000000     32.06600000</v>
   <v name="DARWINR">      0.00000000      0.00000000</v>
   <v name="DARWINV">      1.00000000      1.00000000</v>
   <i type="logical" name="LCORR"> T  </i>
  </separator>
  <i type="logical" name="GGA_COMPAT"> T  </i>
  <i type="logical" name="LBERRY"> F  </i>
  <i type="int" name="ICORELEVEL">     0</i>
  <i type="logical" name="LDAU"> F  </i>
  <i type="int" name="I_CONSTRAINED_M">     0</i>
  <separator name="electronic exchange-correlation" >
   <i type="string" name="GGA">--</i>
   <i type="int" name="VOSKOWN">     0</i>
   <i type="logical" name="LHFCALC"> F  </i>
   <i type="string" name="PRECFOCK"></i>
   <i type="logical" name="LSYMGRAD"> F  </i>
   <i type="logical" name="LHFONE"> F  </i>
   <i type="logical" name="LRHFCALC"> F  </i>
   <i type="logical" name="LTHOMAS"> F  </i>
   <i type="logical" name="LMODELHF"> F  </i>
   <i name="ENCUT4O">     -1.00000000</i>
   <i type="int" name="EXXOEP">     0</i>
   <i type="int" name="FOURORBIT">     0</i>
   <i name="AEXX">      0.00000000</i>
   <i name="HFALPHA">      0.00000000</i>
   <i name="MCALPHA">      0.00000000</i>
   <i name="ALDAX">      1.00000000</i>
   <i name="AGGAX">      1.00000000</i>
   <i name="ALDAC">      1.00000000</i>
   <i name="AGGAC">      1.00000000</i>
   <i type="int" name="NKREDX">     1</i>
   <i type="int" name="NKREDY">     1</i>
   <i type="int" name="NKREDZ">     1</i>
   <i type="logical" name="SHIFTRED"> F  </i>
   <i type="logical" name="ODDONLY"> F  </i>
   <i type="logical" name="EVENONLY"> F  </i>
   <i type="int" name="LMAXFOCK">     0</i>
   <i type="int" name="NMAXFOCKAE">     0</i>
   <i type="logical" name="LFOCKAEDFT"> F  </i>
   <i name="HFSCREEN">      0.00000000</i>
   <i name="HFSCREENC">      0.00000000</i>
   <i type="int" name="NBANDSGWLOW">     0</i>
  </separator>
  <separator name="vdW DFT" >
   <i type="logical" name="LUSE_VDW"> F  </i>
   <i name="Zab_VDW">     -0.84910000</i>
   <i name="PARAM1">      0.12340000</i>
   <i name="PARAM2">      1.00000000</i>
   <i name="PARAM3">      0.00000000</i>
  </separator>
  <separator name="model GW" >
   <i type="int" name="MODEL_GW">     0</i>
   <i name="MODEL_EPS0">     26.33661408</i>
   <i name="MODEL_ALPHA">      1.00000000</i>
  </separator>
  <separator name="linear response parameters" >
   <i type="logical" name="LEPSILON"> F  </i>
   <i type="logical" name="LRPA"> F  </i>
   <i type="logical" name="LNABLA"> F  </i>
   <i type="logical" name="LVEL"> F  </i>
   <i type="int" name="KINTER">     0</i>
   <i name="CSHIFT">      0.10000000</i>
   <i name="OMEGAMAX">     -1.00000000</i>
   <i name="DEG_THRESHOLD">      0.00200000</i>
   <i name="RTIME">     -0.10000000</i>
   <i name="WPLASMAI">      0.00000000</i>
   <v name="DFIELD">      0.00000000      0.00000000      0.00000000</v>
   <v name="WPLASMA">      0.00000000      0.00000000      0.00000000      0.00000000      0.00000000      0.00000000      0.00000000      0.00000000      0.00000000</v>
  </separator>
  <separator name="orbital magnetization" >
   <i type="logical" name="NUCIND"> F  </i>
   <v name="MAGPOS">      0.00000000      0.00000000      0.00000000</v>
   <i type="logical" name="LNICSALL"> T  </i>
   <i type="logical" name="ORBITALMAG"> F  </i>
   <i type="logical" name="LMAGBLOCH"> F  </i>
   <i type="logical" name="LCHIMAG"> F  </i>
   <i type="logical" name="LGAUGE"> T  </i>
   <i type="int" name="MAGATOM">     0</i>
   <v name="MAGDIPOL">      0.00000000      0.00000000      0.00000000</v>
   <v name="AVECCONST">      0.00000000      0.00000000      0.00000000</v>
  </separator>
  <separator name="response functions" >
   <i type="logical" name="LADDER"> F  </i>
   <i type="logical" name="LRPAFORCE"> F  </i>
   <i type="logical" name="LFXC"> F  </i>
   <i type="logical" name="LHARTREE"> T  </i>
   <i type="int" name="IBSE">     0</i>
   <v type="int" name="KPOINT">    -1     0     0     0</v>
   <i type="logical" name="LTCTE"> F  </i>
   <i type="logical" name="LTETE"> F  </i>
   <i type="logical" name="LTRIPLET"> F  </i>
   <i type="logical" name="LFXCEPS"> F  </i>
   <i type="logical" name="LFXHEG"> F  </i>
   <i type="int" name="NATURALO">     2</i>
   <i type="logical" name="L2ORDER"> F  </i>
   <i type="logical" name="LMP2LT"> F  </i>
   <i type="logical" name="LUSEW"> F  </i>
   <i name="ENCUTGW">     -2.00000000</i>
   <i name="ENCUTGWSOFT">     -2.00000000</i>
   <i name="ENCUTLF">     -1.00000000</i>
   <i type="int" name="LMAXMP2">    -1</i>
   <i name="SCISSOR">      0.00000000</i>
   <i type="int" name="NOMEGA">     0</i>
   <i type="int" name="NOMEGAR">     0</i>
   <i type="int" name="NBANDSGW">    -1</i>
   <i type="int" name="NBANDSO">    -1</i>
   <i type="int" name="NBANDSV">    -1</i>
   <i type="int" name="NELM">     1</i>
   <i type="int" name="NELMHF">     1</i>
   <i type="int" name="DIM">     3</i>
   <i type="int" name="ANTIRES">     0</i>
   <i name="OMEGAMAX">    -30.00000000</i>
   <i name="OMEGAMIN">    -30.00000000</i>
   <i name="OMEGATL">   -200.00000000</i>
   <i type="int" name="OMEGAGRID">   140</i>
   <i name="CSHIFT">     -0.10000000</i>
   <i type="logical" name="SELFENERGY"> F  </i>
   <i type="logical" name="LSPECTRAL"> F  </i>
   <i type="logical" name="LSPECTRALGW"> F  </i>
   <i type="logical" name="LSINGLES"> F  </i>
   <i type="logical" name="LFERMIGW"> F  </i>
   <i type="logical" name="ODDONLYGW"> F  </i>
   <i type="logical" name="EVENONLYGW"> F  </i>
   <i type="int" name="NKREDLFX">     1</i>
   <i type="int" name="NKREDLFY">     1</i>
   <i type="int" name="NKREDLFZ">     1</i>
   <i type="int" name="MAXMEM">  2800</i>
   <i type="int" name="TELESCOPE">     0</i>
   <i type="int" name="TAUPAR">     1</i>
   <i type="int" name="OMEGAPAR">    -1</i>
   <i name="LAMBDA">      1.00000000</i>
  </separator>
  <separator name="External order field" >
   <i name="OFIELD_KAPPA">      0.00000000</i>
   <v name="OFIELD_K">      0.00000000      0.00000000      0.00000000</v>
   <i name="OFIELD_Q6_NEAR">      0.00000000</i>
   <i name="OFIELD_Q6_FAR">      0.00000000</i>
   <i name="OFIELD_A">      0.00000000</i>
  </separator>
 </parameters>
 <atominfo>
  <atoms>      27 </atoms>
  <types>       2 </types>
  <array name="atoms" >
   <dimension dim="1">ion</dimension>
   <field type="string">element</field>
   <field type="int">atomtype</field>
   <set>
    <rc><c>Mo</c><c>   1</c></rc>
    <rc><c>Mo</c><c>   1</c></rc>
    <rc><c>Mo</c><c>   1</c></rc>
    <rc><c>Mo</c><c>   1</c></rc>
    <rc><c>Mo</c><c>   1</c></rc>
    <rc><c>Mo</c><c>   1</c></rc>
    <rc><c>Mo</c><c>   1</c></rc>
    <rc><c>Mo</c><c>   1</c></rc>
    <rc><c>Mo</c><c>   1</c></rc>
    <rc><c>S </c><c>   2</c></rc>
    <rc><c>S </c><c>   2</c></rc>
    <rc><c>S </c><c>   2</c></rc>
    <rc><c>S </c><c>   2</c></rc>
    <rc><c>S </c><c>   2</c></rc>
    <rc><c>S </c><c>   2</c></rc>
    <rc><c>S </c><c>   2</c></rc>
    <rc><c>S </c><c>   2</c></rc>
    <rc><c>S </c><c>   2</c></rc>
    <rc><c>S </c><c>   2</c></rc>
    <rc><c>S </c><c>   2</c></rc>
    <rc><c>S </c><c>   2</c></rc>
    <rc><c>S </c><c>   2</c></rc>
    <rc><c>S </c><c>   2</c></rc>
    <rc><c>S </c><c>   2</c></rc>
    <rc><c>S </c><c>   2</c></rc>
    <rc><c>S </c><c>   2</c></rc>
    <rc><c>S </c><c>   2</c></rc>
   </set>
  </array>
  <array name="atomtypes" >
   <dimension dim="1">type</dimension>
   <field type="int">atomspertype</field>
   <field type="string">element</field>
   <field>mass</field>
   <field>valence</field>
   <field type="string">pseudopotential</field>
   <set>
    <rc><c>   9</c><c>Mo</c><c>     95.94000000</c><c>     14.00000000</c><c>  PAW_PBE Mo_sv 02Feb2006               </c></rc>
    <rc><c>  18</c><c>S </c><c>     32.06600000</c><c>      6.00000000</c><c>  PAW_PBE S 06Sep2000                   </c></rc>
   </set>
  </array>
 </atominfo>
 <structure name="initialpos" >
  <crystal>
   <varray name="basis" >
    <v>       9.55158141       0.00000000       0.00000000 </v>
    <v>      -4.77579070       8.27191214       0.00000000 </v>
    <v>       0.00000000       0.00000000      15.00000000 </v>
   </varray>
   <i name="volume">   1185.14763341 </i>
   <varray name="rec_basis" >
    <v>       0.10469471       0.06044552       0.00000000 </v>
    <v>       0.00000000       0.12089103       0.00000000 </v>
    <v>       0.00000000       0.00000000       0.06666667 </v>
   </varray>
  </crystal>
  <varray name="positions" >
   <v>       0.22278457       0.11111111       0.25056234 </v>
   <v>       0.55555556       0.11111111       0.25000000 </v>
   <v>       0.88888890       0.11111111       0.25000000 </v>
   <v>       0.22222223       0.44444445       0.25000000 </v>
   <v>       0.55555556       0.44444445       0.25000000 </v>
   <v>       0.88888890       0.44444445       0.25000000 </v>
   <v>       0.22222223       0.77777778       0.25000000 </v>
   <v>       0.55555556       0.77777778       0.25000000 </v>
   <v>       0.88888890       0.77777778       0.25000000 </v>
   <v>       0.11111111       0.22222223       0.35415213 </v>
   <v>       0.44444445       0.22222223       0.35415213 </v>
   <v>       0.77777778       0.22222223       0.35415213 </v>
   <v>       0.11111111       0.55555556       0.35415213 </v>
   <v>       0.44444445       0.55555556       0.35415213 </v>
   <v>       0.77777778       0.55555556       0.35415213 </v>
   <v>       0.11111111       0.88888890       0.35415213 </v>
   <v>       0.44444445       0.88888890       0.35415213 </v>
   <v>       0.77777778       0.88888890       0.35415213 </v>
   <v>       0.11111111       0.22222223       0.14584787 </v>
   <v>       0.44444445       0.22222223       0.14584787 </v>
   <v>       0.77777778       0.22222223       0.14584787 </v>
   <v>       0.11111111       0.55555556       0.14584787 </v>
   <v>       0.44444445       0.55555556       0.14584787 </v>
   <v>       0.77777778       0.55555556       0.14584787 </v>
   <v>       0.11111111       0.88888890       0.14584787 </v>
   <v>       0.44444445       0.88888890       0.14584787 </v>
   <v>       0.77777778       0.88888890       0.14584787 </v>
  </varray>
 </structure>
 <calculation>
  <scstep>
   <time name="dav">  360.93  361.10</time>
   <time name="total">  361.22  361.63</time>
   <energy>
    <i name="alphaZ">    323.32137470 </i>
    <i name="ewald">  24791.27722357 </i>
    <i name="hartreedc"> -44143.17221401 </i>
    <i name="XCdc">    822.26733398 </i>
    <i name="pawpsdc">  17395.10119161 </i>
    <i name="pawaedc"> -17171.31696658 </i>
    <i name="eentropy">     -0.05735533 </i>
    <i name="bandstr">  -1774.59611203 </i>
    <i name="atom">  21743.29182934 </i>
    <i name="e_fr_energy">   1986.11630525 </i>
    <i name="e_wo_entrp">   1986.17366057 </i>
    <i name="e_0_energy">   1986.14498291 </i>
   </energy>
  </scstep>
  <scstep>
   <time name="dav">  367.90  368.08</time>
   <time name="total">  367.92  368.10</time>
   <energy>
    <i name="e_fr_energy">    -29.86370056 </i>
    <i name="e_wo_entrp">    -29.86370056 </i>
    <i name="e_0_energy">    -29.86370056 </i>
   </energy>
  </scstep>
  <scstep>
   <time name="dav">  338.87  339.03</time>
   <time name="total">  338.89  339.05</time>
   <energy>
    <i name="e_fr_energy">   -202.61079354 </i>
    <i name="e_wo_entrp">   -202.61079354 </i>
    <i name="e_0_energy">   -202.61079354 </i>
   </energy>
  </scstep>
  <scstep>
   <time name="dav">  377.47  377.65</time>
   <time name="total">  377.49  377.66</time>
   <energy>
    <i name="e_fr_energy">   -210.17201142 </i>
    <i name="e_wo_entrp">   -210.17201142 </i>
    <i name="e_0_energy">   -210.17201142 </i>
   </energy>
  </scstep>
  <scstep>
   <time name="dav">  392.86  393.05</time>
   <time name="total">  402.54  402.73</time>
   <energy>
    <i name="e_fr_energy">   -210.39295582 </i>
    <i name="e_wo_entrp">   -210.39295582 </i>
    <i name="e_0_energy">   -210.39295582 </i>
   </energy>
  </scstep>
  <scstep>
   <time name="dav">  329.76  329.92</time>
   <time name="total">  339.70  339.86</time>
   <energy>
    <i name="e_fr_energy">   -200.18370027 </i>
    <i name="e_wo_entrp">   -200.18370027 </i>
    <i name="e_0_energy">   -200.18370027 </i>
   </energy>
  </scstep>
  <scstep>
   <time name="dav">  329.24  329.29</time>
   <time name="total">  339.21  339.26</time>
   <energy>
    <i name="e_fr_energy">   -198.05323316 </i>
    <i name="e_wo_entrp">   -198.05323316 </i>
    <i name="e_0_energy">   -198.05323316 </i>
   </energy>
  </scstep>
  <scstep>
   <time name="dav">  349.87  349.89</time>
   <time name="total">  359.84  359.86</time>
   <energy>
    <i name="e_fr_energy">   -196.63769291 </i>
    <i name="e_wo_entrp">   -196.63769291 </i>
    <i name="e_0_energy">   -196.63769291 </i>
   </energy>
  </scstep>
  <scstep>
   <time name="dav">  375.92  375.93</time>
   <time name="total">  385.85  385.88</time>
   <energy>
    <i name="e_fr_energy">   -196.67846668 </i>
    <i name="e_wo_entrp">   -196.67846668 </i>
    <i name="e_0_energy">   -196.67846668 </i>
   </energy>
  </scstep>
  <scstep>
   <time name="dav">  353.50  353.52</time>
   <time name="total">  363.48  363.50</time>
   <energy>
    <i name="e_fr_energy">   -196.62697699 </i>
    <i name="e_wo_entrp">   -196.62697699 </i>
    <i name="e_0_energy">   -196.62697699 </i>
   </energy>
  </scstep>
  <scstep>
   <time name="dav">  367.81  367.83</time>
   <time name="total">  377.74  377.77</time>
   <energy>
    <i name="e_fr_energy">   -196.61886920 </i>
    <i name="e_wo_entrp">   -196.61886920 </i>
    <i name="e_0_energy">   -196.61886920 </i>
   </energy>
  </scstep>
  <scstep>
   <time name="dav">  366.33  366.35</time>
   <time name="total">  376.28  376.30</time>
   <energy>
    <i name="e_fr_energy">   -196.61712713 </i>
    <i name="e_wo_entrp">   -196.61712713 </i>
    <i name="e_0_energy">   -196.61712713 </i>
   </energy>
  </scstep>
  <scstep>
   <time name="dav">  364.75  364.77</time>
   <time name="total">  374.69  374.71</time>
   <energy>
    <i name="e_fr_energy">   -196.61630442 </i>
    <i name="e_wo_entrp">   -196.61630442 </i>
    <i name="e_0_energy">   -196.61630442 </i>
   </energy>
  </scstep>
  <scstep>
   <time name="dav">  339.36  339.37</time>
   <time name="total">  349.30  349.32</time>
   <energy>
    <i name="e_fr_energy">   -196.61424598 </i>
    <i name="e_wo_entrp">   -196.61424598 </i>
    <i name="e_0_energy">   -196.61424598 </i>
   </energy>
  </scstep>
  <scstep>
   <time name="dav">  363.27  363.29</time>
   <time name="total">  373.20  373.23</time>
   <energy>
    <i name="e_fr_energy">   -196.61460810 </i>
    <i name="e_wo_entrp">   -196.61460810 </i>
    <i name="e_0_energy">   -196.61460810 </i>
   </energy>
  </scstep>
  <scstep>
   <time name="dav">  367.88  367.90</time>
   <time name="total">  377.93  377.95</time>
   <energy>
    <i name="e_fr_energy">   -196.61511212 </i>
    <i name="e_wo_entrp">   -196.61511212 </i>
    <i name="e_0_energy">   -196.61511212 </i>
   </energy>
  </scstep>
  <scstep>
   <time name="dav">  353.59  353.60</time>
   <time name="total">  363.63  363.65</time>
   <energy>
    <i name="e_fr_energy">   -196.61619388 </i>
    <i name="e_wo_entrp">   -196.61619388 </i>
    <i name="e_0_energy">   -196.61619388 </i>
   </energy>
  </scstep>
  <scstep>
   <time name="dav">  354.45  354.47</time>
   <time name="total">  364.49  364.51</time>
   <energy>
    <i name="e_fr_energy">   -196.61671054 </i>
    <i name="e_wo_entrp">   -196.61671054 </i>
    <i name="e_0_energy">   -196.61671054 </i>
   </energy>
  </scstep>
  <scstep>
   <time name="dav">  357.82  357.84</time>
   <time name="total">  367.79  367.81</time>
   <energy>
    <i name="e_fr_energy">   -196.61715864 </i>
    <i name="e_wo_entrp">   -196.61715864 </i>
    <i name="e_0_energy">   -196.61715864 </i>
   </energy>
  </scstep>
  <scstep>
   <time name="dav">  349.39  349.40</time>
   <time name="total">  359.37  359.39</time>
   <energy>
    <i name="e_fr_energy">   -196.61751002 </i>
    <i name="e_wo_entrp">   -196.61751002 </i>
    <i name="e_0_energy">   -196.61751002 </i>
   </energy>
  </scstep>
  <scstep>
   <time name="dav">  366.31  366.32</time>
   <time name="total">  376.33  376.35</time>
   <energy>
    <i name="e_fr_energy">   -196.61762597 </i>
    <i name="e_wo_entrp">   -196.61762597 </i>
    <i name="e_0_energy">   -196.61762597 </i>
   </energy>
  </scstep>
  <scstep>
   <time name="dav">  321.11  321.13</time>
   <time name="total">  331.17  331.19</time>
   <energy>
    <i name="e_fr_energy">   -196.61767477 </i>
    <i name="e_wo_entrp">   -196.61767477 </i>
    <i name="e_0_energy">   -196.61767477 </i>
   </energy>
  </scstep>
  <scstep>
   <time name="dav">  325.35  325.37</time>
   <time name="total">  335.42  335.44</time>
   <energy>
    <i name="e_fr_energy">   -196.61772563 </i>
    <i name="e_wo_entrp">   -196.61772563 </i>
    <i name="e_0_energy">   -196.61772563 </i>
   </energy>
  </scstep>
  <scstep>
   <time name="dav">  339.66  339.68</time>
   <time name="total">  349.69  349.72</time>
   <energy>
    <i name="e_fr_energy">   -196.61772976 </i>
    <i name="e_wo_entrp">   -196.61772976 </i>
    <i name="e_0_energy">   -196.61772976 </i>
   </energy>
  </scstep>
  <scstep>
   <time name="dav">  273.65  273.67</time>
   <time name="total">  283.68  283.70</time>
   <energy>
    <i name="e_fr_energy">   -196.61773260 </i>
    <i name="e_wo_entrp">   -196.61773260 </i>
    <i name="e_0_energy">   -196.61773260 </i>
   </energy>
  </scstep>
  <scstep>
   <time name="dav">  271.72  271.73</time>
   <time name="total">  282.19  282.21</time>
   <energy>
    <i name="e_fr_energy">   -196.61773330 </i>
    <i name="e_wo_entrp">   -196.61773330 </i>
    <i name="e_0_energy">   -196.61773330 </i>
   </energy>
  </scstep>
  <scstep>
   <time name="dav">  251.88  251.90</time>
   <time name="total">  262.37  262.40</time>
   <energy>
    <i name="e_fr_energy">   -196.61773347 </i>
    <i name="e_wo_entrp">   -196.61773347 </i>
    <i name="e_0_energy">   -196.61773347 </i>
   </energy>
  </scstep>
  <scstep>
   <time name="dav">  249.65  249.67</time>
   <time name="total">  260.13  260.33</time>
   <energy>
    <i name="e_fr_energy">   -196.61773353 </i>
    <i name="e_wo_entrp">   -196.61773353 </i>
    <i name="e_0_energy">   -196.61773353 </i>
   </energy>
  </scstep>
  <scstep>
   <time name="dav">  242.21  242.23</time>
   <time name="total">  252.74  252.88</time>
   <energy>
    <i name="e_fr_energy">   -196.61773355 </i>
    <i name="e_wo_entrp">   -196.61773355 </i>
    <i name="e_0_energy">   -196.61773355 </i>
   </energy>
  </scstep>
  <scstep>
   <time name="dav">  230.02  230.04</time>
   <time name="total">  230.28  230.30</time>
   <energy>
    <i name="alphaZ">    323.32137470 </i>
    <i name="ewald">  24791.27722357 </i>
    <i name="hartreedc"> -44094.62144943 </i>
    <i name="XCdc">    817.16875072 </i>
    <i name="pawpsdc">  26317.20370826 </i>
    <i name="pawaedc"> -26127.97968066 </i>
    <i name="eentropy">     -0.00000000 </i>
    <i name="bandstr">  -3966.27949005 </i>
    <i name="atom">  21743.29182934 </i>
    <i name="e_fr_energy">   -196.61773355 </i>
    <i name="e_wo_entrp">   -196.61773355 </i>
    <i name="e_0_energy">   -196.61773355 </i>
   </energy>
  </scstep>
  <structure>
   <crystal>
    <varray name="basis" >
     <v>       9.55158141       0.00000000       0.00000000 </v>
     <v>      -4.77579070       8.27191214       0.00000000 </v>
     <v>       0.00000000       0.00000000      15.00000000 </v>
    </varray>
    <i name="volume">   1185.14763341 </i>
    <varray name="rec_basis" >
     <v>       0.10469471       0.06044552       0.00000000 </v>
     <v>       0.00000000       0.12089103       0.00000000 </v>
     <v>       0.00000000       0.00000000       0.06666667 </v>
    </varray>
   </crystal>
   <varray name="positions" >
    <v>       0.22278457       0.11111111       0.25056234 </v>
    <v>       0.55555556       0.11111111       0.25000000 </v>
    <v>       0.88888890       0.11111111       0.25000000 </v>
    <v>       0.22222223       0.44444445       0.25000000 </v>
    <v>       0.55555556       0.44444445       0.25000000 </v>
    <v>       0.88888890       0.44444445       0.25000000 </v>
    <v>       0.22222223       0.77777778       0.25000000 </v>
    <v>       0.55555556       0.77777778       0.25000000 </v>
    <v>       0.88888890       0.77777778       0.25000000 </v>
    <v>       0.11111111       0.22222223       0.35415213 </v>
    <v>       0.44444445       0.22222223       0.35415213 </v>
    <v>       0.77777778       0.22222223       0.35415213 </v>
    <v>       0.11111111       0.55555556       0.35415213 </v>
    <v>       0.44444445       0.55555556       0.35415213 </v>
    <v>       0.77777778       0.55555556       0.35415213 </v>
    <v>       0.11111111       0.88888890       0.35415213 </v>
    <v>       0.44444445       0.88888890       0.35415213 </v>
    <v>       0.77777778       0.88888890       0.35415213 </v>
    <v>       0.11111111       0.22222223       0.14584787 </v>
    <v>       0.44444445       0.22222223       0.14584787 </v>
    <v>       0.77777778       0.22222223       0.14584787 </v>
    <v>       0.11111111       0.55555556       0.14584787 </v>
    <v>       0.44444445       0.55555556       0.14584787 </v>
    <v>       0.77777778       0.55555556       0.14584787 </v>
    <v>       0.11111111       0.88888890       0.14584787 </v>
    <v>       0.44444445       0.88888890       0.14584787 </v>
    <v>       0.77777778       0.88888890       0.14584787 </v>
   </varray>
  </structure>
  <varray name="forces" >
   <v>      -0.13135504      -0.00041351      -0.22118452 </v>
   <v>       0.00636794       0.00624444      -0.00510331 </v>
   <v>       0.00615381      -0.00581981      -0.00516200 </v>
   <v>       0.00250940       0.00332336      -0.00509644 </v>
   <v>       0.00297060      -0.00379467      -0.00516929 </v>
   <v>       0.00105582      -0.00022965       0.00079744 </v>
   <v>       0.00223516      -0.00773527      -0.00506711 </v>
   <v>       0.00181562       0.00021524       0.00079757 </v>
   <v>       0.00248209       0.00795328      -0.00519864 </v>
   <v>      -0.00251386       0.00653241       0.02343292 </v>
   <v>       0.04824588       0.02278877       0.05434952 </v>
   <v>       0.00060399       0.00001492       0.00137274 </v>
   <v>       0.00026818      -0.00025368       0.00139003 </v>
   <v>      -0.00233389       0.00145529       0.00172761 </v>
   <v>       0.00024393       0.00014813       0.00141544 </v>
   <v>       0.00878764      -0.02913371       0.03881736 </v>
   <v>       0.00159346      -0.00223014       0.00198658 </v>
   <v>      -0.00099231       0.00081175       0.00149606 </v>
   <v>       0.04626552      -0.02162786       0.05267342 </v>
   <v>      -0.00238360      -0.00644852       0.02344448 </v>
   <v>       0.00056226       0.00012215       0.00159303 </v>
   <v>       0.00015448      -0.00029521       0.00154016 </v>
   <v>      -0.00236746      -0.00151966       0.00182123 </v>
   <v>       0.00031604       0.00008245       0.00158623 </v>
   <v>       0.00879529       0.02825292       0.03812453 </v>
   <v>      -0.00102399      -0.00073832       0.00155850 </v>
   <v>       0.00154304       0.00229489       0.00205647 </v>
  </varray>
  <varray name="stress" >
   <v>      -0.02107474       0.04354844       0.00283333 </v>
   <v>       0.04354840      -0.02138583       0.00002126 </v>
   <v>       0.00283337       0.00002127      -0.28906688 </v>
  </varray>
  <energy>
   <i name="e_fr_energy">   -196.61773355 </i>
   <i name="e_wo_entrp">   -196.61773355 </i>
   <i name="e_0_energy">     -0.00000000 </i>
  </energy>
  <time name="totalsc">10512.2710514.68</time>
  <eigenvalues>
   <array>
    <dimension dim="1">band</dimension>
    <dimension dim="2">kpoint</dimension>
    <dimension dim="3">spin</dimension>
    <field>eigene</field>
    <field>occ</field>
    <set>
     <set comment="spin 1">
      <set comment="kpoint 1">
       <r>  -61.6038    1.0000 </r>
       <r>  -61.5785    1.0000 </r>
       <r>  -61.5782    1.0000 </r>
       <r>  -61.5763    1.0000 </r>
       <r>  -61.5758    1.0000 </r>
       <r>  -61.5742    1.0000 </r>
       <r>  -61.5739    1.0000 </r>
       <r>  -61.5622    1.0000 </r>
       <r>  -61.5622    1.0000 </r>
       <r>  -35.8376    1.0000 </r>
       <r>  -35.8370    1.0000 </r>
       <r>  -35.8223    1.0000 </r>
       <r>  -35.8208    1.0000 </r>
       <r>  -35.8176    1.0000 </r>
       <r>  -35.8170    1.0000 </r>
       <r>  -35.7965    1.0000 </r>
       <r>  -35.7960    1.0000 </r>
       <r>  -35.7692    1.0000 </r>
       <r>  -35.7685    1.0000 </r>
       <r>  -35.7427    1.0000 </r>
       <r>  -35.6920    1.0000 </r>
       <r>  -35.6918    1.0000 </r>
       <r>  -35.6876    1.0000 </r>
       <r>  -35.6871    1.0000 </r>
       <r>  -35.6836    1.0000 </r>
       <r>  -35.6834    1.0000 </r>
       <r>  -35.6599    1.0000 </r>
       <r>  -35.6599    1.0000 </r>
       <r>  -35.6088    1.0000 </r>
       <r>  -35.6082    1.0000 </r>
       <r>  -35.6052    1.0000 </r>
       <r>  -35.6048    1.0000 </r>
       <r>  -35.5991    1.0000 </r>
       <r>  -35.5984    1.0000 </r>
       <r>  -35.5414    1.0000 </r>
       <r>  -35.5396    1.0000 </r>
       <r>  -14.7966    1.0000 </r>
       <r>  -13.6196    1.0000 </r>
       <r>  -13.6183    1.0000 </r>
       <r>  -13.5011    1.0000 </r>
       <r>  -13.4971    1.0000 </r>
       <r>  -13.4954    1.0000 </r>
       <r>  -13.3872    1.0000 </r>
       <r>  -13.3859    1.0000 </r>
       <r>  -13.0233    1.0000 </r>
       <r>  -13.0213    1.0000 </r>
       <r>  -12.9737    1.0000 </r>
       <r>  -12.9722    1.0000 </r>
       <r>  -12.9321    1.0000 </r>
       <r>  -12.9299    1.0000 </r>
       <r>  -12.6837    1.0000 </r>
       <r>  -12.6825    1.0000 </r>
       <r>  -12.6088    1.0000 </r>
       <r>  -12.6055    1.0000 </r>
       <r>   -6.3277    1.0000 </r>
       <r>   -6.1091    1.0000 </r>
       <r>   -6.1074    1.0000 </r>
       <r>   -6.0533    1.0000 </r>
       <r>   -6.0524    1.0000 </r>
       <r>   -5.9501    1.0000 </r>
       <r>   -5.9477    1.0000 </r>
       <r>   -5.8600    1.0000 </r>
       <r>   -5.8588    1.0000 </r>
       <r>   -5.3715    1.0000 </r>
       <r>   -5.3694    1.0000 </r>
       <r>   -5.0295    1.0000 </r>
       <r>   -5.0272    1.0000 </r>
       <r>   -4.9009    1.0000 </r>
       <r>   -4.8978    1.0000 </r>
       <r>   -4.7581    1.0000 </r>
       <r>   -4.7554    1.0000 </r>
       <r>   -4.7297    1.0000 </r>
       <r>   -4.7225    1.0000 </r>
       <r>   -4.6410    1.0000 </r>
       <r>   -4.6393    1.0000 </r>
       <r>   -4.6256    1.0000 </r>
       <r>   -4.6240    1.0000 </r>
       <r>   -4.6209    1.0000 </r>
       <r>   -4.6194    1.0000 </r>
       <r>   -4.2708    1.0000 </r>
       <r>   -4.2620    1.0000 </r>
       <r>   -3.6525    1.0000 </r>
       <r>   -3.6498    1.0000 </r>
       <r>   -3.6143    1.0000 </r>
       <r>   -3.6131    1.0000 </r>
       <r>   -3.6048    1.0000 </r>
       <r>   -3.6012    1.0000 </r>
       <r>   -3.5029    1.0000 </r>
       <r>   -3.4997    1.0000 </r>
       <r>   -3.3581    1.0000 </r>
       <r>   -3.3299    1.0000 </r>
       <r>   -2.8695    1.0000 </r>
       <r>   -2.8654    1.0000 </r>
       <r>   -2.5839    1.0000 </r>
       <r>   -2.4116    1.0000 </r>
       <r>   -2.4090    1.0000 </r>
       <r>   -2.3333    1.0000 </r>
       <r>   -2.3321    1.0000 </r>
       <r>   -2.2828    1.0000 </r>
       <r>   -2.2807    1.0000 </r>
       <r>   -2.2490    1.0000 </r>
       <r>   -2.2069    1.0000 </r>
       <r>   -2.2042    1.0000 </r>
       <r>   -2.1693    1.0000 </r>
       <r>   -2.1479    1.0000 </r>
       <r>   -2.1455    1.0000 </r>
       <r>   -2.0286    1.0000 </r>
       <r>   -2.0264    1.0000 </r>
       <r>   -1.6777    1.0000 </r>
       <r>   -1.6753    1.0000 </r>
       <r>   -1.6733    1.0000 </r>
       <r>   -1.6723    1.0000 </r>
       <r>   -1.6709    1.0000 </r>
       <r>   -1.6680    1.0000 </r>
       <r>   -0.7710    1.0000 </r>
       <r>   -0.7680    1.0000 </r>
       <r>   -0.7386    1.0000 </r>
       <r>    0.9568    0.0000 </r>
       <r>    0.9580    0.0000 </r>
       <r>    1.4496    0.0000 </r>
       <r>    1.4523    0.0000 </r>
       <r>    1.4626    0.0000 </r>
       <r>    1.4644    0.0000 </r>
       <r>    1.4800    0.0000 </r>
       <r>    1.4809    0.0000 </r>
       <r>    1.5646    0.0000 </r>
       <r>    1.5666    0.0000 </r>
       <r>    1.6297    0.0000 </r>
       <r>    1.6334    0.0000 </r>
       <r>    1.6731    0.0000 </r>
       <r>    1.6745    0.0000 </r>
       <r>    2.0116    0.0000 </r>
       <r>    2.0369    0.0000 </r>
       <r>    2.2427    0.0000 </r>
       <r>    2.2616    0.0000 </r>
       <r>    2.3400    0.0000 </r>
       <r>    2.3422    0.0000 </r>
       <r>    2.5327    0.0000 </r>
       <r>    2.5375    0.0000 </r>
       <r>    2.6337    0.0000 </r>
      </set>
      <set comment="kpoint 2">
       <r>  -61.6038    1.0000 </r>
       <r>  -61.5783    1.0000 </r>
       <r>  -61.5783    1.0000 </r>
       <r>  -61.5761    1.0000 </r>
       <r>  -61.5760    1.0000 </r>
       <r>  -61.5741    1.0000 </r>
       <r>  -61.5741    1.0000 </r>
       <r>  -61.5622    1.0000 </r>
       <r>  -61.5622    1.0000 </r>
       <r>  -35.8373    1.0000 </r>
       <r>  -35.8371    1.0000 </r>
       <r>  -35.8223    1.0000 </r>
       <r>  -35.8208    1.0000 </r>
       <r>  -35.8174    1.0000 </r>
       <r>  -35.8174    1.0000 </r>
       <r>  -35.7963    1.0000 </r>
       <r>  -35.7961    1.0000 </r>
       <r>  -35.7692    1.0000 </r>
       <r>  -35.7686    1.0000 </r>
       <r>  -35.7427    1.0000 </r>
       <r>  -35.6919    1.0000 </r>
       <r>  -35.6919    1.0000 </r>
       <r>  -35.6874    1.0000 </r>
       <r>  -35.6874    1.0000 </r>
       <r>  -35.6835    1.0000 </r>
       <r>  -35.6835    1.0000 </r>
       <r>  -35.6599    1.0000 </r>
       <r>  -35.6599    1.0000 </r>
       <r>  -35.6086    1.0000 </r>
       <r>  -35.6085    1.0000 </r>
       <r>  -35.6049    1.0000 </r>
       <r>  -35.6049    1.0000 </r>
       <r>  -35.5988    1.0000 </r>
       <r>  -35.5987    1.0000 </r>
       <r>  -35.5414    1.0000 </r>
       <r>  -35.5397    1.0000 </r>
       <r>  -14.7966    1.0000 </r>
       <r>  -13.6193    1.0000 </r>
       <r>  -13.6188    1.0000 </r>
       <r>  -13.5010    1.0000 </r>
       <r>  -13.4963    1.0000 </r>
       <r>  -13.4959    1.0000 </r>
       <r>  -13.3869    1.0000 </r>
       <r>  -13.3864    1.0000 </r>
       <r>  -13.0225    1.0000 </r>
       <r>  -13.0218    1.0000 </r>
       <r>  -12.9734    1.0000 </r>
       <r>  -12.9733    1.0000 </r>
       <r>  -12.9311    1.0000 </r>
       <r>  -12.9303    1.0000 </r>
       <r>  -12.6837    1.0000 </r>
       <r>  -12.6825    1.0000 </r>
       <r>  -12.6088    1.0000 </r>
       <r>  -12.6055    1.0000 </r>
       <r>   -6.3277    1.0000 </r>
       <r>   -6.1091    1.0000 </r>
       <r>   -6.1074    1.0000 </r>
       <r>   -6.0529    1.0000 </r>
       <r>   -6.0528    1.0000 </r>
       <r>   -5.9489    1.0000 </r>
       <r>   -5.9488    1.0000 </r>
       <r>   -5.8595    1.0000 </r>
       <r>   -5.8593    1.0000 </r>
       <r>   -5.3716    1.0000 </r>
       <r>   -5.3694    1.0000 </r>
       <r>   -5.0286    1.0000 </r>
       <r>   -5.0284    1.0000 </r>
       <r>   -4.8996    1.0000 </r>
       <r>   -4.8992    1.0000 </r>
       <r>   -4.7567    1.0000 </r>
       <r>   -4.7564    1.0000 </r>
       <r>   -4.7297    1.0000 </r>
       <r>   -4.7223    1.0000 </r>
       <r>   -4.6411    1.0000 </r>
       <r>   -4.6399    1.0000 </r>
       <r>   -4.6244    1.0000 </r>
       <r>   -4.6242    1.0000 </r>
       <r>   -4.6209    1.0000 </r>
       <r>   -4.6198    1.0000 </r>
       <r>   -4.2711    1.0000 </r>
       <r>   -4.2618    1.0000 </r>
       <r>   -3.6528    1.0000 </r>
       <r>   -3.6505    1.0000 </r>
       <r>   -3.6144    1.0000 </r>
       <r>   -3.6129    1.0000 </r>
       <r>   -3.6022    1.0000 </r>
       <r>   -3.6016    1.0000 </r>
       <r>   -3.5030    1.0000 </r>
       <r>   -3.5008    1.0000 </r>
       <r>   -3.3586    1.0000 </r>
       <r>   -3.3294    1.0000 </r>
       <r>   -2.8696    1.0000 </r>
       <r>   -2.8654    1.0000 </r>
       <r>   -2.5834    1.0000 </r>
       <r>   -2.4107    1.0000 </r>
       <r>   -2.4096    1.0000 </r>
       <r>   -2.3333    1.0000 </r>
       <r>   -2.3328    1.0000 </r>
       <r>   -2.2817    1.0000 </r>
       <r>   -2.2814    1.0000 </r>
       <r>   -2.2512    1.0000 </r>
       <r>   -2.2056    1.0000 </r>
       <r>   -2.2051    1.0000 </r>
       <r>   -2.1676    1.0000 </r>
       <r>   -2.1475    1.0000 </r>
       <r>   -2.1462    1.0000 </r>
       <r>   -2.0279    1.0000 </r>
       <r>   -2.0276    1.0000 </r>
       <r>   -1.6769    1.0000 </r>
       <r>   -1.6748    1.0000 </r>
       <r>   -1.6737    1.0000 </r>
       <r>   -1.6721    1.0000 </r>
       <r>   -1.6711    1.0000 </r>
       <r>   -1.6687    1.0000 </r>
       <r>   -0.7710    1.0000 </r>
       <r>   -0.7680    1.0000 </r>
       <r>   -0.7386    1.0000 </r>
       <r>    0.9567    0.0000 </r>
       <r>    0.9581    0.0000 </r>
       <r>    1.4504    0.0000 </r>
       <r>    1.4515    0.0000 </r>
       <r>    1.4631    0.0000 </r>
       <r>    1.4635    0.0000 </r>
       <r>    1.4805    0.0000 </r>
       <r>    1.4815    0.0000 </r>
       <r>    1.5649    0.0000 </r>
       <r>    1.5651    0.0000 </r>
       <r>    1.6312    0.0000 </r>
       <r>    1.6323    0.0000 </r>
       <r>    1.6735    0.0000 </r>
       <r>    1.6742    0.0000 </r>
       <r>    2.0088    0.0000 </r>
       <r>    2.0397    0.0000 </r>
       <r>    2.2437    0.0000 </r>
       <r>    2.2606    0.0000 </r>
       <r>    2.3401    0.0000 </r>
       <r>    2.3422    0.0000 </r>
       <r>    2.5339    0.0000 </r>
       <r>    2.5370    0.0000 </r>
       <r>    2.6368    0.0000 </r>
      </set>
      <set comment="kpoint 3">
       <r>  -61.6038    1.0000 </r>
       <r>  -61.5785    1.0000 </r>
       <r>  -61.5782    1.0000 </r>
       <r>  -61.5763    1.0000 </r>
       <r>  -61.5758    1.0000 </r>
       <r>  -61.5742    1.0000 </r>
       <r>  -61.5739    1.0000 </r>
       <r>  -61.5622    1.0000 </r>
       <r>  -61.5622    1.0000 </r>
       <r>  -35.8374    1.0000 </r>
       <r>  -35.8369    1.0000 </r>
       <r>  -35.8224    1.0000 </r>
       <r>  -35.8207    1.0000 </r>
       <r>  -35.8178    1.0000 </r>
       <r>  -35.8172    1.0000 </r>
       <r>  -35.7964    1.0000 </r>
       <r>  -35.7959    1.0000 </r>
       <r>  -35.7693    1.0000 </r>
       <r>  -35.7685    1.0000 </r>
       <r>  -35.7427    1.0000 </r>
       <r>  -35.6920    1.0000 </r>
       <r>  -35.6918    1.0000 </r>
       <r>  -35.6876    1.0000 </r>
       <r>  -35.6871    1.0000 </r>
       <r>  -35.6836    1.0000 </r>
       <r>  -35.6834    1.0000 </r>
       <r>  -35.6599    1.0000 </r>
       <r>  -35.6599    1.0000 </r>
       <r>  -35.6089    1.0000 </r>
       <r>  -35.6082    1.0000 </r>
       <r>  -35.6051    1.0000 </r>
       <r>  -35.6047    1.0000 </r>
       <r>  -35.5992    1.0000 </r>
       <r>  -35.5985    1.0000 </r>
       <r>  -35.5413    1.0000 </r>
       <r>  -35.5397    1.0000 </r>
       <r>  -14.7966    1.0000 </r>
       <r>  -13.6198    1.0000 </r>
       <r>  -13.6185    1.0000 </r>
       <r>  -13.5010    1.0000 </r>
       <r>  -13.4968    1.0000 </r>
       <r>  -13.4949    1.0000 </r>
       <r>  -13.3875    1.0000 </r>
       <r>  -13.3862    1.0000 </r>
       <r>  -13.0230    1.0000 </r>
       <r>  -13.0210    1.0000 </r>
       <r>  -12.9745    1.0000 </r>
       <r>  -12.9729    1.0000 </r>
       <r>  -12.9316    1.0000 </r>
       <r>  -12.9294    1.0000 </r>
       <r>  -12.6837    1.0000 </r>
       <r>  -12.6824    1.0000 </r>
       <r>  -12.6088    1.0000 </r>
       <r>  -12.6055    1.0000 </r>
       <r>   -6.3277    1.0000 </r>
       <r>   -6.1090    1.0000 </r>
       <r>   -6.1075    1.0000 </r>
       <r>   -6.0532    1.0000 </r>
       <r>   -6.0524    1.0000 </r>
       <r>   -5.9500    1.0000 </r>
       <r>   -5.9477    1.0000 </r>
       <r>   -5.8600    1.0000 </r>
       <r>   -5.8588    1.0000 </r>
       <r>   -5.3716    1.0000 </r>
       <r>   -5.3694    1.0000 </r>
       <r>   -5.0297    1.0000 </r>
       <r>   -5.0274    1.0000 </r>
       <r>   -4.9010    1.0000 </r>
       <r>   -4.8979    1.0000 </r>
       <r>   -4.7578    1.0000 </r>
       <r>   -4.7551    1.0000 </r>
       <r>   -4.7298    1.0000 </r>
       <r>   -4.7221    1.0000 </r>
       <r>   -4.6416    1.0000 </r>
       <r>   -4.6399    1.0000 </r>
       <r>   -4.6244    1.0000 </r>
       <r>   -4.6231    1.0000 </r>
       <r>   -4.6214    1.0000 </r>
       <r>   -4.6198    1.0000 </r>
       <r>   -4.2713    1.0000 </r>
       <r>   -4.2617    1.0000 </r>
       <r>   -3.6534    1.0000 </r>
       <r>   -3.6506    1.0000 </r>
       <r>   -3.6144    1.0000 </r>
       <r>   -3.6128    1.0000 </r>
       <r>   -3.6026    1.0000 </r>
       <r>   -3.5991    1.0000 </r>
       <r>   -3.5042    1.0000 </r>
       <r>   -3.5010    1.0000 </r>
       <r>   -3.3592    1.0000 </r>
       <r>   -3.3288    1.0000 </r>
       <r>   -2.8697    1.0000 </r>
       <r>   -2.8653    1.0000 </r>
       <r>   -2.5829    1.0000 </r>
       <r>   -2.4113    1.0000 </r>
       <r>   -2.4086    1.0000 </r>
       <r>   -2.3339    1.0000 </r>
       <r>   -2.3329    1.0000 </r>
       <r>   -2.2824    1.0000 </r>
       <r>   -2.2804    1.0000 </r>
       <r>   -2.2534    1.0000 </r>
       <r>   -2.2070    1.0000 </r>
       <r>   -2.2034    1.0000 </r>
       <r>   -2.1659    1.0000 </r>
       <r>   -2.1486    1.0000 </r>
       <r>   -2.1451    1.0000 </r>
       <r>   -2.0292    1.0000 </r>
       <r>   -2.0270    1.0000 </r>
       <r>   -1.6756    1.0000 </r>
       <r>   -1.6749    1.0000 </r>
       <r>   -1.6737    1.0000 </r>
       <r>   -1.6719    1.0000 </r>
       <r>   -1.6715    1.0000 </r>
       <r>   -1.6694    1.0000 </r>
       <r>   -0.7710    1.0000 </r>
       <r>   -0.7680    1.0000 </r>
       <r>   -0.7386    1.0000 </r>
       <r>    0.9566    0.0000 </r>
       <r>    0.9582    0.0000 </r>
       <r>    1.4502    0.0000 </r>
       <r>    1.4520    0.0000 </r>
       <r>    1.4622    0.0000 </r>
       <r>    1.4645    0.0000 </r>
       <r>    1.4808    0.0000 </r>
       <r>    1.4816    0.0000 </r>
       <r>    1.5633    0.0000 </r>
       <r>    1.5656    0.0000 </r>
       <r>    1.6301    0.0000 </r>
       <r>    1.6338    0.0000 </r>
       <r>    1.6732    0.0000 </r>
       <r>    1.6745    0.0000 </r>
       <r>    2.0064    0.0000 </r>
       <r>    2.0421    0.0000 </r>
       <r>    2.2447    0.0000 </r>
       <r>    2.2595    0.0000 </r>
       <r>    2.3402    0.0000 </r>
       <r>    2.3421    0.0000 </r>
       <r>    2.5318    0.0000 </r>
       <r>    2.5390    0.0000 </r>
       <r>    2.6398    0.0000 </r>
      </set>
      <set comment="kpoint 4">
       <r>  -61.6031    1.0000 </r>
       <r>  -61.5814    1.0000 </r>
       <r>  -61.5796    1.0000 </r>
       <r>  -61.5772    1.0000 </r>
       <r>  -61.5744    1.0000 </r>
       <r>  -61.5727    1.0000 </r>
       <r>  -61.5717    1.0000 </r>
       <r>  -61.5626    1.0000 </r>
       <r>  -61.5626    1.0000 </r>
       <r>  -35.8605    1.0000 </r>
       <r>  -35.8485    1.0000 </r>
       <r>  -35.8329    1.0000 </r>
       <r>  -35.8305    1.0000 </r>
       <r>  -35.8297    1.0000 </r>
       <r>  -35.8033    1.0000 </r>
       <r>  -35.7816    1.0000 </r>
       <r>  -35.7660    1.0000 </r>
       <r>  -35.7552    1.0000 </r>
       <r>  -35.7536    1.0000 </r>
       <r>  -35.7413    1.0000 </r>
       <r>  -35.6981    1.0000 </r>
       <r>  -35.6945    1.0000 </r>
       <r>  -35.6896    1.0000 </r>
       <r>  -35.6841    1.0000 </r>
       <r>  -35.6806    1.0000 </r>
       <r>  -35.6787    1.0000 </r>
       <r>  -35.6607    1.0000 </r>
       <r>  -35.6605    1.0000 </r>
       <r>  -35.6146    1.0000 </r>
       <r>  -35.6138    1.0000 </r>
       <r>  -35.6126    1.0000 </r>
       <r>  -35.6057    1.0000 </r>
       <r>  -35.5980    1.0000 </r>
       <r>  -35.5916    1.0000 </r>
       <r>  -35.5486    1.0000 </r>
       <r>  -35.5413    1.0000 </r>
       <r>  -14.7680    1.0000 </r>
       <r>  -13.7806    1.0000 </r>
       <r>  -13.6875    1.0000 </r>
       <r>  -13.5578    1.0000 </r>
       <r>  -13.4890    1.0000 </r>
       <r>  -13.4042    1.0000 </r>
       <r>  -13.3048    1.0000 </r>
       <r>  -13.2468    1.0000 </r>
       <r>  -13.0868    1.0000 </r>
       <r>  -13.0487    1.0000 </r>
       <r>  -12.9961    1.0000 </r>
       <r>  -12.9354    1.0000 </r>
       <r>  -12.8980    1.0000 </r>
       <r>  -12.8772    1.0000 </r>
       <r>  -12.7072    1.0000 </r>
       <r>  -12.7026    1.0000 </r>
       <r>  -12.6204    1.0000 </r>
       <r>  -12.6168    1.0000 </r>
       <r>   -6.2945    1.0000 </r>
       <r>   -6.1834    1.0000 </r>
       <r>   -6.1049    1.0000 </r>
       <r>   -6.0694    1.0000 </r>
       <r>   -6.0643    1.0000 </r>
       <r>   -5.9967    1.0000 </r>
       <r>   -5.8712    1.0000 </r>
       <r>   -5.7959    1.0000 </r>
       <r>   -5.7601    1.0000 </r>
       <r>   -5.5174    1.0000 </r>
       <r>   -5.5053    1.0000 </r>
       <r>   -5.1832    1.0000 </r>
       <r>   -5.1185    1.0000 </r>
       <r>   -4.9997    1.0000 </r>
       <r>   -4.8112    1.0000 </r>
       <r>   -4.6690    1.0000 </r>
       <r>   -4.6586    1.0000 </r>
       <r>   -4.6429    1.0000 </r>
       <r>   -4.6360    1.0000 </r>
       <r>   -4.6168    1.0000 </r>
       <r>   -4.6090    1.0000 </r>
       <r>   -4.6069    1.0000 </r>
       <r>   -4.6051    1.0000 </r>
       <r>   -4.5940    1.0000 </r>
       <r>   -4.5565    1.0000 </r>
       <r>   -4.2060    1.0000 </r>
       <r>   -4.1544    1.0000 </r>
       <r>   -3.7332    1.0000 </r>
       <r>   -3.7309    1.0000 </r>
       <r>   -3.7147    1.0000 </r>
       <r>   -3.6700    1.0000 </r>
       <r>   -3.6632    1.0000 </r>
       <r>   -3.6370    1.0000 </r>
       <r>   -3.5140    1.0000 </r>
       <r>   -3.4238    1.0000 </r>
       <r>   -3.3840    1.0000 </r>
       <r>   -3.3000    1.0000 </r>
       <r>   -2.8125    1.0000 </r>
       <r>   -2.8005    1.0000 </r>
       <r>   -2.7518    1.0000 </r>
       <r>   -2.4788    1.0000 </r>
       <r>   -2.4147    1.0000 </r>
       <r>   -2.3413    1.0000 </r>
       <r>   -2.3241    1.0000 </r>
       <r>   -2.3231    1.0000 </r>
       <r>   -2.3020    1.0000 </r>
       <r>   -2.2951    1.0000 </r>
       <r>   -2.2287    1.0000 </r>
       <r>   -2.2245    1.0000 </r>
       <r>   -2.1828    1.0000 </r>
       <r>   -2.1810    1.0000 </r>
       <r>   -2.0947    1.0000 </r>
       <r>   -2.0420    1.0000 </r>
       <r>   -1.9295    1.0000 </r>
       <r>   -1.6271    1.0000 </r>
       <r>   -1.6229    1.0000 </r>
       <r>   -1.6190    1.0000 </r>
       <r>   -1.6025    1.0000 </r>
       <r>   -1.5999    1.0000 </r>
       <r>   -1.5892    1.0000 </r>
       <r>   -0.8356    1.0000 </r>
       <r>   -0.8238    1.0000 </r>
       <r>   -0.7520    1.0000 </r>
       <r>    1.0301    0.0000 </r>
       <r>    1.0368    0.0000 </r>
       <r>    1.3903    0.0000 </r>
       <r>    1.4093    0.0000 </r>
       <r>    1.4186    0.0000 </r>
       <r>    1.4496    0.0000 </r>
       <r>    1.4645    0.0000 </r>
       <r>    1.4686    0.0000 </r>
       <r>    1.5580    0.0000 </r>
       <r>    1.6138    0.0000 </r>
       <r>    1.6594    0.0000 </r>
       <r>    1.7035    0.0000 </r>
       <r>    1.7360    0.0000 </r>
       <r>    1.7622    0.0000 </r>
       <r>    1.9686    0.0000 </r>
       <r>    2.0886    0.0000 </r>
       <r>    2.1587    0.0000 </r>
       <r>    2.2284    0.0000 </r>
       <r>    2.3612    0.0000 </r>
       <r>    2.3683    0.0000 </r>
       <r>    2.3739    0.0000 </r>
       <r>    2.4002    0.0000 </r>
       <r>    2.4860    0.0000 </r>
      </set>
      <set comment="kpoint 5">
       <r>  -61.6031    1.0000 </r>
       <r>  -61.5814    1.0000 </r>
       <r>  -61.5796    1.0000 </r>
       <r>  -61.5772    1.0000 </r>
       <r>  -61.5744    1.0000 </r>
       <r>  -61.5727    1.0000 </r>
       <r>  -61.5717    1.0000 </r>
       <r>  -61.5626    1.0000 </r>
       <r>  -61.5626    1.0000 </r>
       <r>  -35.8603    1.0000 </r>
       <r>  -35.8486    1.0000 </r>
       <r>  -35.8329    1.0000 </r>
       <r>  -35.8305    1.0000 </r>
       <r>  -35.8298    1.0000 </r>
       <r>  -35.8035    1.0000 </r>
       <r>  -35.7817    1.0000 </r>
       <r>  -35.7659    1.0000 </r>
       <r>  -35.7552    1.0000 </r>
       <r>  -35.7537    1.0000 </r>
       <r>  -35.7413    1.0000 </r>
       <r>  -35.6981    1.0000 </r>
       <r>  -35.6945    1.0000 </r>
       <r>  -35.6896    1.0000 </r>
       <r>  -35.6841    1.0000 </r>
       <r>  -35.6806    1.0000 </r>
       <r>  -35.6787    1.0000 </r>
       <r>  -35.6607    1.0000 </r>
       <r>  -35.6605    1.0000 </r>
       <r>  -35.6144    1.0000 </r>
       <r>  -35.6141    1.0000 </r>
       <r>  -35.6125    1.0000 </r>
       <r>  -35.6057    1.0000 </r>
       <r>  -35.5979    1.0000 </r>
       <r>  -35.5917    1.0000 </r>
       <r>  -35.5485    1.0000 </r>
       <r>  -35.5414    1.0000 </r>
       <r>  -14.7680    1.0000 </r>
       <r>  -13.7809    1.0000 </r>
       <r>  -13.6873    1.0000 </r>
       <r>  -13.5575    1.0000 </r>
       <r>  -13.4889    1.0000 </r>
       <r>  -13.4040    1.0000 </r>
       <r>  -13.3045    1.0000 </r>
       <r>  -13.2474    1.0000 </r>
       <r>  -13.0862    1.0000 </r>
       <r>  -13.0491    1.0000 </r>
       <r>  -12.9965    1.0000 </r>
       <r>  -12.9357    1.0000 </r>
       <r>  -12.8983    1.0000 </r>
       <r>  -12.8763    1.0000 </r>
       <r>  -12.7073    1.0000 </r>
       <r>  -12.7026    1.0000 </r>
       <r>  -12.6204    1.0000 </r>
       <r>  -12.6168    1.0000 </r>
       <r>   -6.2945    1.0000 </r>
       <r>   -6.1831    1.0000 </r>
       <r>   -6.1050    1.0000 </r>
       <r>   -6.0693    1.0000 </r>
       <r>   -6.0645    1.0000 </r>
       <r>   -5.9968    1.0000 </r>
       <r>   -5.8711    1.0000 </r>
       <r>   -5.7957    1.0000 </r>
       <r>   -5.7604    1.0000 </r>
       <r>   -5.5176    1.0000 </r>
       <r>   -5.5054    1.0000 </r>
       <r>   -5.1838    1.0000 </r>
       <r>   -5.1187    1.0000 </r>
       <r>   -5.0001    1.0000 </r>
       <r>   -4.8108    1.0000 </r>
       <r>   -4.6702    1.0000 </r>
       <r>   -4.6585    1.0000 </r>
       <r>   -4.6422    1.0000 </r>
       <r>   -4.6358    1.0000 </r>
       <r>   -4.6162    1.0000 </r>
       <r>   -4.6083    1.0000 </r>
       <r>   -4.6068    1.0000 </r>
       <r>   -4.6055    1.0000 </r>
       <r>   -4.5933    1.0000 </r>
       <r>   -4.5556    1.0000 </r>
       <r>   -4.2065    1.0000 </r>
       <r>   -4.1545    1.0000 </r>
       <r>   -3.7336    1.0000 </r>
       <r>   -3.7310    1.0000 </r>
       <r>   -3.7129    1.0000 </r>
       <r>   -3.6699    1.0000 </r>
       <r>   -3.6629    1.0000 </r>
       <r>   -3.6368    1.0000 </r>
       <r>   -3.5134    1.0000 </r>
       <r>   -3.4247    1.0000 </r>
       <r>   -3.3864    1.0000 </r>
       <r>   -3.2991    1.0000 </r>
       <r>   -2.8129    1.0000 </r>
       <r>   -2.8005    1.0000 </r>
       <r>   -2.7502    1.0000 </r>
       <r>   -2.4775    1.0000 </r>
       <r>   -2.4157    1.0000 </r>
       <r>   -2.3409    1.0000 </r>
       <r>   -2.3249    1.0000 </r>
       <r>   -2.3230    1.0000 </r>
       <r>   -2.3019    1.0000 </r>
       <r>   -2.2984    1.0000 </r>
       <r>   -2.2300    1.0000 </r>
       <r>   -2.2243    1.0000 </r>
       <r>   -2.1819    1.0000 </r>
       <r>   -2.1814    1.0000 </r>
       <r>   -2.0959    1.0000 </r>
       <r>   -2.0397    1.0000 </r>
       <r>   -1.9296    1.0000 </r>
       <r>   -1.6292    1.0000 </r>
       <r>   -1.6249    1.0000 </r>
       <r>   -1.6169    1.0000 </r>
[...]
       <r>   -4.4027    1.0000 </r>
       <r>   -4.4000    1.0000 </r>
       <r>   -4.1828    1.0000 </r>
       <r>   -3.9966    1.0000 </r>
       <r>   -3.9374    1.0000 </r>
       <r>   -3.9354    1.0000 </r>
       <r>   -3.9141    1.0000 </r>
       <r>   -3.9126    1.0000 </r>
       <r>   -3.8984    1.0000 </r>
       <r>   -3.8959    1.0000 </r>
       <r>   -3.8859    1.0000 </r>
       <r>   -3.7491    1.0000 </r>
       <r>   -3.5305    1.0000 </r>
       <r>   -3.2302    1.0000 </r>
       <r>   -3.2293    1.0000 </r>
       <r>   -2.9954    1.0000 </r>
       <r>   -2.9464    1.0000 </r>
       <r>   -2.9451    1.0000 </r>
       <r>   -2.8716    1.0000 </r>
       <r>   -2.8522    1.0000 </r>
       <r>   -2.7090    1.0000 </r>
       <r>   -2.6908    1.0000 </r>
       <r>   -2.6882    1.0000 </r>
       <r>   -2.6046    1.0000 </r>
       <r>   -2.4770    1.0000 </r>
       <r>   -2.4747    1.0000 </r>
       <r>   -2.4150    1.0000 </r>
       <r>   -2.4128    1.0000 </r>
       <r>   -1.8371    1.0000 </r>
       <r>   -1.7994    1.0000 </r>
       <r>   -1.7876    1.0000 </r>
       <r>   -1.7861    1.0000 </r>
       <r>   -1.7138    1.0000 </r>
       <r>   -1.5210    1.0000 </r>
       <r>   -1.5156    1.0000 </r>
       <r>   -1.3666    1.0000 </r>
       <r>   -1.2706    1.0000 </r>
       <r>   -1.2695    1.0000 </r>
       <r>   -1.1862    1.0000 </r>
       <r>   -1.1851    1.0000 </r>
       <r>   -1.0854    1.0000 </r>
       <r>   -0.9652    1.0000 </r>
       <r>    1.2052    0.0000 </r>
       <r>    1.2098    0.0000 </r>
       <r>    1.4484    0.0000 </r>
       <r>    1.4491    0.0000 </r>
       <r>    1.4941    0.0000 </r>
       <r>    1.4953    0.0000 </r>
       <r>    1.5060    0.0000 </r>
       <r>    1.5195    0.0000 </r>
       <r>    1.6231    0.0000 </r>
       <r>    1.7381    0.0000 </r>
       <r>    1.7409    0.0000 </r>
       <r>    1.8262    0.0000 </r>
       <r>    1.8397    0.0000 </r>
       <r>    1.8737    0.0000 </r>
       <r>    1.9366    0.0000 </r>
       <r>    1.9490    0.0000 </r>
       <r>    1.9530    0.0000 </r>
       <r>    1.9887    0.0000 </r>
       <r>    1.9902    0.0000 </r>
       <r>    2.0142    0.0000 </r>
       <r>    2.1306    0.0000 </r>
       <r>    2.1323    0.0000 </r>
       <r>    2.5391    0.0000 </r>
      </set>
     </set>
    </set>
   </array>
  </eigenvalues>
  <separator name="orbital magnetization" >
   <v name="MAGDIPOLOUT">      0.00000000      0.00000000      0.00000000</v>
  </separator>
  <dos>
   <i name="efermi">     -0.24315038 </i>
   <total>
    <array>
     <dimension dim="1">gridpoints</dimension>
     <dimension dim="2">spin</dimension>
     <field>energy</field>
     <field>total</field>
     <field>integrated</field>
     <set>
      <set comment="spin 1">
       <r>   -64.8162     0.0000     0.0000 </r>
       <r>   -64.5806     0.0000     0.0000 </r>
       <r>   -64.3450     0.0000     0.0000 </r>
       <r>   -64.1095     0.0000     0.0000 </r>
       <r>   -63.8739     0.0000     0.0000 </r>
       <r>   -63.6384     0.0000     0.0000 </r>
       <r>   -63.4028     0.0000     0.0000 </r>
       <r>   -63.1672     0.0000     0.0000 </r>
       <r>   -62.9317     0.0000     0.0000 </r>
       <r>   -62.6961     0.0000     0.0000 </r>
       <r>   -62.4606     0.0000     0.0000 </r>
       <r>   -62.2250     0.0000     0.0000 </r>
       <r>   -61.9894     0.0000     0.0000 </r>
       <r>   -61.7539     0.5036     0.1186 </r>
       <r>   -61.5183    59.8764    14.2232 </r>
       <r>   -61.2828    16.0319    17.9996 </r>
       <r>   -61.0472     0.0015    18.0000 </r>
       <r>   -60.8116     0.0000    18.0000 </r>
       <r>   -60.5761     0.0000    18.0000 </r>
       <r>   -60.3405     0.0000    18.0000 </r>
       <r>   -60.1050     0.0000    18.0000 </r>
       <r>   -59.8694     0.0000    18.0000 </r>
       <r>   -59.6338     0.0000    18.0000 </r>
       <r>   -59.3983     0.0000    18.0000 </r>
       <r>   -59.1627     0.0000    18.0000 </r>
       <r>   -58.9272     0.0000    18.0000 </r>
       <r>   -58.6916     0.0000    18.0000 </r>
       <r>   -58.4560     0.0000    18.0000 </r>
       <r>   -58.2205     0.0000    18.0000 </r>
       <r>   -57.9849     0.0000    18.0000 </r>
       <r>   -57.7493     0.0000    18.0000 </r>
       <r>   -57.5138     0.0000    18.0000 </r>
       <r>   -57.2782     0.0000    18.0000 </r>
       <r>   -57.0427     0.0000    18.0000 </r>
       <r>   -56.8071     0.0000    18.0000 </r>
       <r>   -56.5715     0.0000    18.0000 </r>
       <r>   -56.3360     0.0000    18.0000 </r>
       <r>   -56.1004     0.0000    18.0000 </r>
       <r>   -55.8649     0.0000    18.0000 </r>
       <r>   -55.6293     0.0000    18.0000 </r>
       <r>   -55.3937     0.0000    18.0000 </r>
       <r>   -55.1582     0.0000    18.0000 </r>
       <r>   -54.9226     0.0000    18.0000 </r>
       <r>   -54.6871     0.0000    18.0000 </r>
       <r>   -54.4515     0.0000    18.0000 </r>
       <r>   -54.2159     0.0000    18.0000 </r>
       <r>   -53.9804     0.0000    18.0000 </r>
       <r>   -53.7448     0.0000    18.0000 </r>
       <r>   -53.5093     0.0000    18.0000 </r>
       <r>   -53.2737     0.0000    18.0000 </r>
       <r>   -53.0381     0.0000    18.0000 </r>
       <r>   -52.8026     0.0000    18.0000 </r>
       <r>   -52.5670     0.0000    18.0000 </r>
       <r>   -52.3315     0.0000    18.0000 </r>
       <r>   -52.0959     0.0000    18.0000 </r>
       <r>   -51.8603     0.0000    18.0000 </r>
       <r>   -51.6248     0.0000    18.0000 </r>
       <r>   -51.3892     0.0000    18.0000 </r>
       <r>   -51.1537     0.0000    18.0000 </r>
       <r>   -50.9181     0.0000    18.0000 </r>
       <r>   -50.6825     0.0000    18.0000 </r>
       <r>   -50.4470     0.0000    18.0000 </r>
       <r>   -50.2114     0.0000    18.0000 </r>
       <r>   -49.9759     0.0000    18.0000 </r>
       <r>   -49.7403     0.0000    18.0000 </r>
       <r>   -49.5047     0.0000    18.0000 </r>
       <r>   -49.2692     0.0000    18.0000 </r>
       <r>   -49.0336     0.0000    18.0000 </r>
       <r>   -48.7981     0.0000    18.0000 </r>
       <r>   -48.5625     0.0000    18.0000 </r>
       <r>   -48.3269     0.0000    18.0000 </r>
       <r>   -48.0914     0.0000    18.0000 </r>
       <r>   -47.8558     0.0000    18.0000 </r>
       <r>   -47.6202     0.0000    18.0000 </r>
       <r>   -47.3847     0.0000    18.0000 </r>
       <r>   -47.1491     0.0000    18.0000 </r>
       <r>   -46.9136     0.0000    18.0000 </r>
       <r>   -46.6780     0.0000    18.0000 </r>
       <r>   -46.4424     0.0000    18.0000 </r>
       <r>   -46.2069     0.0000    18.0000 </r>
       <r>   -45.9713     0.0000    18.0000 </r>
       <r>   -45.7358     0.0000    18.0000 </r>
       <r>   -45.5002     0.0000    18.0000 </r>
       <r>   -45.2646     0.0000    18.0000 </r>
       <r>   -45.0291     0.0000    18.0000 </r>
       <r>   -44.7935     0.0000    18.0000 </r>
       <r>   -44.5580     0.0000    18.0000 </r>
       <r>   -44.3224     0.0000    18.0000 </r>
       <r>   -44.0868     0.0000    18.0000 </r>
       <r>   -43.8513     0.0000    18.0000 </r>
       <r>   -43.6157     0.0000    18.0000 </r>
       <r>   -43.3802     0.0000    18.0000 </r>
       <r>   -43.1446     0.0000    18.0000 </r>
       <r>   -42.9090     0.0000    18.0000 </r>
       <r>   -42.6735     0.0000    18.0000 </r>
       <r>   -42.4379     0.0000    18.0000 </r>
       <r>   -42.2024     0.0000    18.0000 </r>
       <r>   -41.9668     0.0000    18.0000 </r>
       <r>   -41.7312     0.0000    18.0000 </r>
       <r>   -41.4957     0.0000    18.0000 </r>
       <r>   -41.2601     0.0000    18.0000 </r>
       <r>   -41.0246     0.0000    18.0000 </r>
       <r>   -40.7890     0.0000    18.0000 </r>
       <r>   -40.5534     0.0000    18.0000 </r>
       <r>   -40.3179     0.0000    18.0000 </r>
       <r>   -40.0823     0.0000    18.0000 </r>
       <r>   -39.8468     0.0000    18.0000 </r>
       <r>   -39.6112     0.0000    18.0000 </r>
       <r>   -39.3756     0.0000    18.0000 </r>
       <r>   -39.1401     0.0000    18.0000 </r>
       <r>   -38.9045     0.0000    18.0000 </r>
       <r>   -38.6690     0.0000    18.0000 </r>
       <r>   -38.4334     0.0000    18.0000 </r>
       <r>   -38.1978     0.0000    18.0000 </r>
       <r>   -37.9623     0.0000    18.0000 </r>
       <r>   -37.7267     0.0000    18.0000 </r>
       <r>   -37.4911     0.0000    18.0000 </r>
       <r>   -37.2556     0.0000    18.0000 </r>
       <r>   -37.0200     0.0000    18.0000 </r>
       <r>   -36.7845     0.0000    18.0000 </r>
       <r>   -36.5489     0.0000    18.0000 </r>
       <r>   -36.3133     0.0000    18.0000 </r>
       <r>   -36.0778     0.0773    18.0182 </r>
       <r>   -35.8422    30.6255    25.2323 </r>
       <r>   -35.6067   150.5265    60.6904 </r>
       <r>   -35.3711    47.9189    71.9782 </r>
       <r>   -35.1355     0.0925    72.0000 </r>
       <r>   -34.9000     0.0000    72.0000 </r>
       <r>   -34.6644     0.0000    72.0000 </r>
       <r>   -34.4289     0.0000    72.0000 </r>
       <r>   -34.1933     0.0000    72.0000 </r>
       <r>   -33.9577     0.0000    72.0000 </r>
       <r>   -33.7222     0.0000    72.0000 </r>
       <r>   -33.4866     0.0000    72.0000 </r>
       <r>   -33.2511     0.0000    72.0000 </r>
       <r>   -33.0155     0.0000    72.0000 </r>
       <r>   -32.7799     0.0000    72.0000 </r>
       <r>   -32.5444     0.0000    72.0000 </r>
       <r>   -32.3088     0.0000    72.0000 </r>
       <r>   -32.0733     0.0000    72.0000 </r>
       <r>   -31.8377     0.0000    72.0000 </r>
       <r>   -31.6021     0.0000    72.0000 </r>
       <r>   -31.3666     0.0000    72.0000 </r>
       <r>   -31.1310     0.0000    72.0000 </r>
       <r>   -30.8955     0.0000    72.0000 </r>
       <r>   -30.6599     0.0000    72.0000 </r>
       <r>   -30.4243     0.0000    72.0000 </r>
       <r>   -30.1888     0.0000    72.0000 </r>
       <r>   -29.9532     0.0000    72.0000 </r>
       <r>   -29.7177     0.0000    72.0000 </r>
       <r>   -29.4821     0.0000    72.0000 </r>
       <r>   -29.2465     0.0000    72.0000 </r>
       <r>   -29.0110     0.0000    72.0000 </r>
       <r>   -28.7754     0.0000    72.0000 </r>
       <r>   -28.5399     0.0000    72.0000 </r>
       <r>   -28.3043     0.0000    72.0000 </r>
       <r>   -28.0687     0.0000    72.0000 </r>
       <r>   -27.8332     0.0000    72.0000 </r>
       <r>   -27.5976     0.0000    72.0000 </r>
       <r>   -27.3620     0.0000    72.0000 </r>
       <r>   -27.1265     0.0000    72.0000 </r>
       <r>   -26.8909     0.0000    72.0000 </r>
       <r>   -26.6554     0.0000    72.0000 </r>
       <r>   -26.4198     0.0000    72.0000 </r>
       <r>   -26.1842     0.0000    72.0000 </r>
       <r>   -25.9487     0.0000    72.0000 </r>
       <r>   -25.7131     0.0000    72.0000 </r>
       <r>   -25.4776     0.0000    72.0000 </r>
       <r>   -25.2420     0.0000    72.0000 </r>
       <r>   -25.0064     0.0000    72.0000 </r>
       <r>   -24.7709     0.0000    72.0000 </r>
       <r>   -24.5353     0.0000    72.0000 </r>
       <r>   -24.2998     0.0000    72.0000 </r>
       <r>   -24.0642     0.0000    72.0000 </r>
       <r>   -23.8286     0.0000    72.0000 </r>
       <r>   -23.5931     0.0000    72.0000 </r>
       <r>   -23.3575     0.0000    72.0000 </r>
       <r>   -23.1220     0.0000    72.0000 </r>
       <r>   -22.8864     0.0000    72.0000 </r>
       <r>   -22.6508     0.0000    72.0000 </r>
       <r>   -22.4153     0.0000    72.0000 </r>
       <r>   -22.1797     0.0000    72.0000 </r>
       <r>   -21.9442     0.0000    72.0000 </r>
       <r>   -21.7086     0.0000    72.0000 </r>
       <r>   -21.4730     0.0000    72.0000 </r>
       <r>   -21.2375     0.0000    72.0000 </r>
       <r>   -21.0019     0.0000    72.0000 </r>
       <r>   -20.7664     0.0000    72.0000 </r>
       <r>   -20.5308     0.0000    72.0000 </r>
       <r>   -20.2952     0.0000    72.0000 </r>
       <r>   -20.0597     0.0000    72.0000 </r>
       <r>   -19.8241     0.0000    72.0000 </r>
       <r>   -19.5886     0.0000    72.0000 </r>
       <r>   -19.3530     0.0000    72.0000 </r>
       <r>   -19.1174     0.0000    72.0000 </r>
       <r>   -18.8819     0.0000    72.0000 </r>
       <r>   -18.6463     0.0000    72.0000 </r>
       <r>   -18.4108     0.0000    72.0000 </r>
       <r>   -18.1752     0.0000    72.0000 </r>
       <r>   -17.9396     0.0000    72.0000 </r>
       <r>   -17.7041     0.0000    72.0000 </r>
       <r>   -17.4685     0.0000    72.0000 </r>
       <r>   -17.2329     0.0000    72.0000 </r>
       <r>   -16.9974     0.0000    72.0000 </r>
       <r>   -16.7618     0.0000    72.0000 </r>
       <r>   -16.5263     0.0000    72.0000 </r>
       <r>   -16.2907     0.0000    72.0000 </r>
       <r>   -16.0551     0.0000    72.0000 </r>
       <r>   -15.8196     0.0000    72.0000 </r>
       <r>   -15.5840     0.0000    72.0000 </r>
       <r>   -15.3485     0.0000    72.0000 </r>
       <r>   -15.1129     0.0000    72.0000 </r>
       <r>   -14.8773     0.1064    72.0251 </r>
       <r>   -14.6418     3.0163    72.7356 </r>
       <r>   -14.4062     4.7250    73.8486 </r>
       <r>   -14.1707     5.0915    75.0480 </r>
       <r>   -13.9351     5.5588    76.3574 </r>
       <r>   -13.6995     6.2005    77.8180 </r>
       <r>   -13.4640     9.6351    80.0876 </r>
       <r>   -13.2284    20.2882    84.8667 </r>
       <r>   -12.9929    28.9621    91.6891 </r>
       <r>   -12.7573    44.2761   102.1188 </r>
       <r>   -12.5217    24.5096   107.8923 </r>
       <r>   -12.2862     0.4573   108.0000 </r>
       <r>   -12.0506     0.0000   108.0000 </r>
       <r>   -11.8151     0.0000   108.0000 </r>
       <r>   -11.5795     0.0000   108.0000 </r>
       <r>   -11.3439     0.0000   108.0000 </r>
       <r>   -11.1084     0.0000   108.0000 </r>
       <r>   -10.8728     0.0000   108.0000 </r>
       <r>   -10.6373     0.0000   108.0000 </r>
       <r>   -10.4017     0.0000   108.0000 </r>
       <r>   -10.1661     0.0000   108.0000 </r>
       <r>    -9.9306     0.0000   108.0000 </r>
       <r>    -9.6950     0.0000   108.0000 </r>
       <r>    -9.4595     0.0000   108.0000 </r>
       <r>    -9.2239     0.0000   108.0000 </r>
       <r>    -8.9883     0.0000   108.0000 </r>
       <r>    -8.7528     0.0000   108.0000 </r>
       <r>    -8.5172     0.0000   108.0000 </r>
       <r>    -8.2817     0.0000   108.0000 </r>
       <r>    -8.0461     0.0000   108.0000 </r>
       <r>    -7.8105     0.0000   108.0000 </r>
       <r>    -7.5750     0.0000   108.0000 </r>
       <r>    -7.3394     0.0000   108.0000 </r>
       <r>    -7.1038     0.0000   108.0000 </r>
       <r>    -6.8683     0.0000   108.0000 </r>
       <r>    -6.6327     0.0194   108.0046 </r>
       <r>    -6.3972     3.8060   108.9011 </r>
       <r>    -6.1616    13.5487   112.0926 </r>
       <r>    -5.9260    24.1955   117.7921 </r>
       <r>    -5.6905    36.8817   126.4800 </r>
       <r>    -5.4549    22.2882   131.7302 </r>
       <r>    -5.2194    11.1079   134.3468 </r>
       <r>    -4.9838     6.9850   135.9922 </r>
       <r>    -4.7482    11.8593   138.7858 </r>
       <r>    -4.5127    43.5179   149.0369 </r>
       <r>    -4.2771    25.6042   155.0682 </r>
       <r>    -4.0416    13.9140   158.3458 </r>
       <r>    -3.8060    42.2903   168.3077 </r>
       <r>    -3.5704    26.6716   174.5905 </r>
       <r>    -3.3349    14.9075   178.1021 </r>
       <r>    -3.0993    15.0395   181.6448 </r>
       <r>    -2.8638    16.4716   185.5249 </r>
       <r>    -2.6282    27.4494   191.9909 </r>
       <r>    -2.3926    36.5395   200.5981 </r>
       <r>    -2.1571    23.1288   206.0463 </r>
       <r>    -1.9215    18.8645   210.4901 </r>
       <r>    -1.6860    21.9231   215.6543 </r>
       <r>    -1.4504    25.1725   221.5839 </r>
       <r>    -1.2148    23.6238   227.1488 </r>
       <r>    -0.9793    16.8539   231.1189 </r>
       <r>    -0.7437    10.6499   233.6276 </r>
       <r>    -0.5082     1.5803   233.9999 </r>
       <r>    -0.2726     0.0006   234.0000 </r>
       <r>    -0.0370     0.0000   234.0000 </r>
       <r>     0.1985     0.0000   234.0000 </r>
       <r>     0.4341     0.0000   234.0000 </r>
       <r>     0.6696     0.0000   234.0000 </r>
       <r>     0.9052     0.2251   234.0530 </r>
       <r>     1.1408     3.6574   234.9146 </r>
       <r>     1.3763    23.7730   240.5145 </r>
       <r>     1.6119    45.1388   251.1475 </r>
       <r>     1.8474    42.5708   261.1755 </r>
       <r>     2.0830    38.4060   270.2224 </r>
       <r>     2.3186    24.6287   276.0239 </r>
       <r>     2.5541    15.4704   279.6682 </r>
       <r>     2.7897     1.4045   279.9990 </r>
       <r>     3.0253     0.0042   280.0000 </r>
       <r>     3.2608     0.0000   280.0000 </r>
       <r>     3.4964     0.0000   280.0000 </r>
       <r>     3.7319     0.0000   280.0000 </r>
       <r>     3.9675     0.0000   280.0000 </r>
       <r>     4.2031     0.0000   280.0000 </r>
       <r>     4.4386     0.0000   280.0000 </r>
       <r>     4.6742     0.0000   280.0000 </r>
       <r>     4.9097     0.0000   280.0000 </r>
       <r>     5.1453     0.0000   280.0000 </r>
       <r>     5.3809     0.0000   280.0000 </r>
       <r>     5.6164     0.0000   280.0000 </r>
       <r>     5.8520     0.0000   280.0000 </r>
      </set>
     </set>
    </array>
   </total>
  </dos>
 </calculation>
 <structure name="finalpos" >
  <crystal>
   <varray name="basis" >
    <v>       9.55158141       0.00000000       0.00000000 </v>
    <v>      -4.77579070       8.27191214       0.00000000 </v>
    <v>       0.00000000       0.00000000      15.00000000 </v>
   </varray>
   <i name="volume">   1185.14763341 </i>
   <varray name="rec_basis" >
    <v>       0.10469471       0.06044552       0.00000000 </v>
    <v>       0.00000000       0.12089103       0.00000000 </v>
    <v>       0.00000000       0.00000000       0.06666667 </v>
   </varray>
  </crystal>
  <varray name="positions" >
   <v>       0.22278457       0.11111111       0.25056234 </v>
   <v>       0.55555556       0.11111111       0.25000000 </v>
   <v>       0.88888890       0.11111111       0.25000000 </v>
   <v>       0.22222223       0.44444445       0.25000000 </v>
   <v>       0.55555556       0.44444445       0.25000000 </v>
   <v>       0.88888890       0.44444445       0.25000000 </v>
   <v>       0.22222223       0.77777778       0.25000000 </v>
   <v>       0.55555556       0.77777778       0.25000000 </v>
   <v>       0.88888890       0.77777778       0.25000000 </v>
   <v>       0.11111111       0.22222223       0.35415213 </v>
   <v>       0.44444445       0.22222223       0.35415213 </v>
   <v>       0.77777778       0.22222223       0.35415213 </v>
   <v>       0.11111111       0.55555556       0.35415213 </v>
   <v>       0.44444445       0.55555556       0.35415213 </v>
   <v>       0.77777778       0.55555556       0.35415213 </v>
   <v>       0.11111111       0.88888890       0.35415213 </v>
   <v>       0.44444445       0.88888890       0.35415213 </v>
   <v>       0.77777778       0.88888890       0.35415213 </v>
   <v>       0.11111111       0.22222223       0.14584787 </v>
   <v>       0.44444445       0.22222223       0.14584787 </v>
   <v>       0.77777778       0.22222223       0.14584787 </v>
   <v>       0.11111111       0.55555556       0.14584787 </v>
   <v>       0.44444445       0.55555556       0.14584787 </v>
   <v>       0.77777778       0.55555556       0.14584787 </v>
   <v>       0.11111111       0.88888890       0.14584787 </v>
   <v>       0.44444445       0.88888890       0.14584787 </v>
   <v>       0.77777778       0.88888890       0.14584787 </v>
  </varray>
 </structure>
</modeling>
