unknown system                          
           1
     9.551581    0.000000    0.000000
    -4.775791    8.271912    0.000000
     0.000000    0.000000   15.000000
   Mo   S 
   9  18
Direct configuration=     1
   0.22278457  0.11111111  0.25056234
   0.55555556  0.11111111  0.25000000
   0.88888890  0.11111111  0.25000000
   0.22222223  0.44444445  0.25000000
   0.55555556  0.44444445  0.25000000
   0.88888890  0.44444445  0.25000000
   0.22222223  0.77777778  0.25000000
   0.55555556  0.77777778  0.25000000
   0.88888890  0.77777778  0.25000000
   0.11111111  0.22222223  0.35415213
   0.44444445  0.22222223  0.35415213
   0.77777778  0.22222223  0.35415213
   0.11111111  0.55555556  0.35415213
   0.44444445  0.55555556  0.35415213
   0.77777778  0.55555556  0.35415213
   0.11111111  0.88888890  0.35415213
   0.44444445  0.88888890  0.35415213
   0.77777778  0.88888890  0.35415213
   0.11111111  0.22222223  0.14584787
   0.44444445  0.22222223  0.14584787
   0.77777778  0.22222223  0.14584787
   0.11111111  0.55555556  0.14584787
   0.44444445  0.55555556  0.14584787
   0.77777778  0.55555556  0.14584787
   0.11111111  0.88888890  0.14584787
   0.44444445  0.88888890  0.14584787
   0.77777778  0.88888890  0.14584787
