   3   3   0   0
  0.4389436E+02  0.3183861E-09  0.3183861E-09  0.1500000E-08  0.5000000E-15
  1.000000000000000E-004
  CAR 
 unknown system                          
     12.32180352    -65.12380594  301     -0.52126005      1.00000000
    -65.124  0.0000E+00  0.0000E+00
    -64.866  0.0000E+00  0.0000E+00
    -64.608  0.0000E+00  0.0000E+00
    -64.349  0.0000E+00  0.0000E+00
    -64.091  0.0000E+00  0.0000E+00
    -63.833  0.0000E+00  0.0000E+00
    -63.575  0.0000E+00  0.0000E+00
    -63.317  0.0000E+00  0.0000E+00
    -63.059  0.0000E+00  0.0000E+00
    -62.800  0.0000E+00  0.0000E+00
    -62.542  0.0000E+00  0.0000E+00
    -62.284  0.0000E+00  0.0000E+00
    -62.026  0.0000E+00  0.0000E+00
    -61.768  0.3952E-08  0.1020E-08
    -61.510  0.2490E-01  0.6428E-02
    -61.252  0.9227E-03  0.6667E-02
    -60.993  0.0000E+00  0.6667E-02
    -60.735  0.0000E+00  0.6667E-02
    -60.477  0.0000E+00  0.6667E-02
    -60.219  0.0000E+00  0.6667E-02
    -59.961  0.0000E+00  0.6667E-02
    -59.703  0.0000E+00  0.6667E-02
    -59.444  0.0000E+00  0.6667E-02
    -59.186  0.0000E+00  0.6667E-02
    -58.928  0.0000E+00  0.6667E-02
    -58.670  0.0000E+00  0.6667E-02
    -58.412  0.0000E+00  0.6667E-02
    -58.154  0.0000E+00  0.6667E-02
    -57.896  0.0000E+00  0.6667E-02
    -57.637  0.0000E+00  0.6667E-02
    -57.379  0.0000E+00  0.6667E-02
    -57.121  0.0000E+00  0.6667E-02
    -56.863  0.0000E+00  0.6667E-02
    -56.605  0.0000E+00  0.6667E-02
    -56.347  0.0000E+00  0.6667E-02
    -56.088  0.0000E+00  0.6667E-02
    -55.830  0.0000E+00  0.6667E-02
    -55.572  0.0000E+00  0.6667E-02
    -55.314  0.0000E+00  0.6667E-02
    -55.056  0.0000E+00  0.6667E-02
    -54.798  0.0000E+00  0.6667E-02
    -54.540  0.0000E+00  0.6667E-02
    -54.281  0.0000E+00  0.6667E-02
    -54.023  0.0000E+00  0.6667E-02
    -53.765  0.0000E+00  0.6667E-02
    -53.507  0.0000E+00  0.6667E-02
    -53.249  0.0000E+00  0.6667E-02
    -52.991  0.0000E+00  0.6667E-02
    -52.733  0.0000E+00  0.6667E-02
    -52.474  0.0000E+00  0.6667E-02
    -52.216  0.0000E+00  0.6667E-02
    -51.958  0.0000E+00  0.6667E-02
    -51.700  0.0000E+00  0.6667E-02
    -51.442  0.0000E+00  0.6667E-02
    -51.184  0.0000E+00  0.6667E-02
    -50.925  0.0000E+00  0.6667E-02
    -50.667  0.0000E+00  0.6667E-02
    -50.409  0.0000E+00  0.6667E-02
    -50.151  0.0000E+00  0.6667E-02
    -49.893  0.0000E+00  0.6667E-02
    -49.635  0.0000E+00  0.6667E-02
    -49.377  0.0000E+00  0.6667E-02
    -49.118  0.0000E+00  0.6667E-02
    -48.860  0.0000E+00  0.6667E-02
    -48.602  0.0000E+00  0.6667E-02
    -48.344  0.0000E+00  0.6667E-02
    -48.086  0.0000E+00  0.6667E-02
    -47.828  0.0000E+00  0.6667E-02
    -47.569  0.0000E+00  0.6667E-02
    -47.311  0.0000E+00  0.6667E-02
    -47.053  0.0000E+00  0.6667E-02
    -46.795  0.0000E+00  0.6667E-02
    -46.537  0.0000E+00  0.6667E-02
    -46.279  0.0000E+00  0.6667E-02
    -46.021  0.0000E+00  0.6667E-02
    -45.762  0.0000E+00  0.6667E-02
    -45.504  0.0000E+00  0.6667E-02
    -45.246  0.0000E+00  0.6667E-02
    -44.988  0.0000E+00  0.6667E-02
    -44.730  0.0000E+00  0.6667E-02
    -44.472  0.0000E+00  0.6667E-02
    -44.213  0.0000E+00  0.6667E-02
    -43.955  0.0000E+00  0.6667E-02
    -43.697  0.0000E+00  0.6667E-02
    -43.439  0.0000E+00  0.6667E-02
    -43.181  0.0000E+00  0.6667E-02
    -42.923  0.0000E+00  0.6667E-02
    -42.665  0.0000E+00  0.6667E-02
    -42.406  0.0000E+00  0.6667E-02
    -42.148  0.0000E+00  0.6667E-02
    -41.890  0.0000E+00  0.6667E-02
    -41.632  0.0000E+00  0.6667E-02
    -41.374  0.0000E+00  0.6667E-02
    -41.116  0.0000E+00  0.6667E-02
    -40.858  0.0000E+00  0.6667E-02
    -40.599  0.0000E+00  0.6667E-02
    -40.341  0.0000E+00  0.6667E-02
    -40.083  0.0000E+00  0.6667E-02
    -39.825  0.0000E+00  0.6667E-02
    -39.567  0.0000E+00  0.6667E-02
    -39.309  0.0000E+00  0.6667E-02
    -39.050  0.0000E+00  0.6667E-02
    -38.792  0.0000E+00  0.6667E-02
    -38.534  0.0000E+00  0.6667E-02
    -38.276  0.0000E+00  0.6667E-02
    -38.018  0.0000E+00  0.6667E-02
    -37.760  0.0000E+00  0.6667E-02
    -37.502  0.0000E+00  0.6667E-02
    -37.243  0.0000E+00  0.6667E-02
    -36.985  0.0000E+00  0.6667E-02
    -36.727  0.0000E+00  0.6667E-02
    -36.469  0.0000E+00  0.6667E-02
    -36.211  0.0000E+00  0.6667E-02
    -35.953  0.2279E-03  0.6726E-02
    -35.694  0.3588E-01  0.1599E-01
    -35.436  0.4137E-01  0.2667E-01
    -35.178  0.2503E-05  0.2667E-01
    -34.920  0.0000E+00  0.2667E-01
    -34.662  0.0000E+00  0.2667E-01
    -34.404  0.0000E+00  0.2667E-01
    -34.146  0.0000E+00  0.2667E-01
    -33.887  0.0000E+00  0.2667E-01
    -33.629  0.0000E+00  0.2667E-01
    -33.371  0.0000E+00  0.2667E-01
    -33.113  0.0000E+00  0.2667E-01
    -32.855  0.0000E+00  0.2667E-01
    -32.597  0.0000E+00  0.2667E-01
    -32.338  0.0000E+00  0.2667E-01
    -32.080  0.0000E+00  0.2667E-01
    -31.822  0.0000E+00  0.2667E-01
    -31.564  0.0000E+00  0.2667E-01
    -31.306  0.0000E+00  0.2667E-01
    -31.048  0.0000E+00  0.2667E-01
    -30.790  0.0000E+00  0.2667E-01
    -30.531  0.0000E+00  0.2667E-01
    -30.273  0.0000E+00  0.2667E-01
    -30.015  0.0000E+00  0.2667E-01
    -29.757  0.0000E+00  0.2667E-01
    -29.499  0.0000E+00  0.2667E-01
    -29.241  0.0000E+00  0.2667E-01
    -28.983  0.0000E+00  0.2667E-01
    -28.724  0.0000E+00  0.2667E-01
    -28.466  0.0000E+00  0.2667E-01
    -28.208  0.0000E+00  0.2667E-01
    -27.950  0.0000E+00  0.2667E-01
    -27.692  0.0000E+00  0.2667E-01
    -27.434  0.0000E+00  0.2667E-01
    -27.175  0.0000E+00  0.2667E-01
    -26.917  0.0000E+00  0.2667E-01
    -26.659  0.0000E+00  0.2667E-01
    -26.401  0.0000E+00  0.2667E-01
    -26.143  0.0000E+00  0.2667E-01
    -25.885  0.0000E+00  0.2667E-01
    -25.627  0.0000E+00  0.2667E-01
    -25.368  0.0000E+00  0.2667E-01
    -25.110  0.0000E+00  0.2667E-01
    -24.852  0.0000E+00  0.2667E-01
    -24.594  0.0000E+00  0.2667E-01
    -24.336  0.0000E+00  0.2667E-01
    -24.078  0.0000E+00  0.2667E-01
    -23.819  0.0000E+00  0.2667E-01
    -23.561  0.0000E+00  0.2667E-01
    -23.303  0.0000E+00  0.2667E-01
    -23.045  0.0000E+00  0.2667E-01
    -22.787  0.0000E+00  0.2667E-01
    -22.529  0.0000E+00  0.2667E-01
    -22.271  0.0000E+00  0.2667E-01
    -22.012  0.0000E+00  0.2667E-01
    -21.754  0.0000E+00  0.2667E-01
    -21.496  0.0000E+00  0.2667E-01
    -21.238  0.0000E+00  0.2667E-01
    -20.980  0.0000E+00  0.2667E-01
    -20.722  0.0000E+00  0.2667E-01
    -20.464  0.0000E+00  0.2667E-01
    -20.205  0.0000E+00  0.2667E-01
    -19.947  0.0000E+00  0.2667E-01
    -19.689  0.0000E+00  0.2667E-01
    -19.431  0.0000E+00  0.2667E-01
    -19.173  0.0000E+00  0.2667E-01
    -18.915  0.0000E+00  0.2667E-01
    -18.656  0.0000E+00  0.2667E-01
    -18.398  0.0000E+00  0.2667E-01
    -18.140  0.0000E+00  0.2667E-01
    -17.882  0.0000E+00  0.2667E-01
    -17.624  0.0000E+00  0.2667E-01
    -17.366  0.0000E+00  0.2667E-01
    -17.108  0.0000E+00  0.2667E-01
    -16.849  0.0000E+00  0.2667E-01
    -16.591  0.0000E+00  0.2667E-01
    -16.333  0.0000E+00  0.2667E-01
    -16.075  0.0000E+00  0.2667E-01
    -15.817  0.0000E+00  0.2667E-01
    -15.559  0.0000E+00  0.2667E-01
    -15.300  0.0000E+00  0.2667E-01
    -15.042  0.1868E-16  0.2667E-01
    -14.784  0.1808E-03  0.2671E-01
    -14.526  0.1668E-02  0.2714E-01
    -14.268  0.1968E-02  0.2765E-01
    -14.010  0.1615E-02  0.2807E-01
    -13.752  0.2476E-02  0.2871E-01
    -13.493  0.2905E-02  0.2946E-01
    -13.235  0.7323E-02  0.3135E-01
    -12.977  0.1071E-01  0.3411E-01
    -12.719  0.1734E-01  0.3859E-01
    -12.461  0.5461E-02  0.4000E-01
    -12.203  0.0000E+00  0.4000E-01
    -11.944  0.0000E+00  0.4000E-01
    -11.686  0.0000E+00  0.4000E-01
    -11.428  0.0000E+00  0.4000E-01
    -11.170  0.0000E+00  0.4000E-01
    -10.912  0.0000E+00  0.4000E-01
    -10.654  0.0000E+00  0.4000E-01
    -10.396  0.0000E+00  0.4000E-01
    -10.137  0.0000E+00  0.4000E-01
     -9.879  0.0000E+00  0.4000E-01
     -9.621  0.0000E+00  0.4000E-01
     -9.363  0.0000E+00  0.4000E-01
     -9.105  0.0000E+00  0.4000E-01
     -8.847  0.0000E+00  0.4000E-01
     -8.589  0.0000E+00  0.4000E-01
     -8.330  0.0000E+00  0.4000E-01
     -8.072  0.0000E+00  0.4000E-01
     -7.814  0.0000E+00  0.4000E-01
     -7.556  0.0000E+00  0.4000E-01
     -7.298  0.0000E+00  0.4000E-01
     -7.040  0.0000E+00  0.4000E-01
     -6.781  0.0000E+00  0.4000E-01
     -6.523  0.1938E-04  0.4001E-01
     -6.265  0.3152E-02  0.4082E-01
     -6.007  0.7360E-02  0.4272E-01
     -5.749  0.1316E-01  0.4612E-01
     -5.491  0.8986E-02  0.4844E-01
     -5.233  0.5210E-02  0.4978E-01
     -4.974  0.2308E-02  0.5038E-01
     -4.716  0.5056E-02  0.5168E-01
     -4.458  0.1700E-01  0.5607E-01
     -4.200  0.6588E-02  0.5777E-01
     -3.942  0.7323E-02  0.5966E-01
     -3.684  0.1612E-01  0.6382E-01
     -3.425  0.6983E-02  0.6563E-01
     -3.167  0.4731E-02  0.6685E-01
     -2.909  0.5783E-02  0.6834E-01
     -2.651  0.9155E-02  0.7070E-01
     -2.393  0.1403E-01  0.7433E-01
     -2.135  0.8706E-02  0.7657E-01
     -1.877  0.6948E-02  0.7837E-01
     -1.618  0.7784E-02  0.8038E-01
     -1.360  0.1012E-01  0.8299E-01
     -1.102  0.7542E-02  0.8494E-01
     -0.844  0.4826E-02  0.8618E-01
     -0.586  0.1878E-02  0.8667E-01
     -0.328  0.0000E+00  0.8667E-01
     -0.069  0.0000E+00  0.8667E-01
      0.189  0.0000E+00  0.8667E-01
      0.447  0.0000E+00  0.8667E-01
      0.705  0.0000E+00  0.8667E-01
      0.963  0.8751E-04  0.8669E-01
      1.221  0.2000E-02  0.8721E-01
      1.479  0.1525E-01  0.9114E-01
      1.738  0.1321E-01  0.9455E-01
      1.996  0.1713E-01  0.9898E-01
      2.254  0.1046E-01  0.1017E+00
      2.512  0.1076E-01  0.1045E+00
      2.770  0.6090E-02  0.1060E+00
      3.028  0.5420E-02  0.1074E+00
      3.286  0.4953E-02  0.1087E+00
      3.545  0.8027E-02  0.1108E+00
      3.803  0.5950E-02  0.1123E+00
      4.061  0.3290E-02  0.1132E+00
      4.319  0.6608E-03  0.1133E+00
      4.577  0.5465E-04  0.1133E+00
      4.835  0.8560E-03  0.1136E+00
      5.094  0.1498E-02  0.1140E+00
      5.352  0.2674E-02  0.1146E+00
      5.610  0.3842E-02  0.1156E+00
      5.868  0.5009E-02  0.1169E+00
      6.126  0.5789E-02  0.1184E+00
      6.384  0.6424E-02  0.1201E+00
      6.642  0.7450E-02  0.1220E+00
      6.901  0.4124E-02  0.1231E+00
      7.159  0.8085E-02  0.1252E+00
      7.417  0.7830E-02  0.1272E+00
      7.675  0.1091E-01  0.1300E+00
      7.933  0.5297E-02  0.1314E+00
      8.191  0.3075E-02  0.1322E+00
      8.450  0.2412E-02  0.1328E+00
      8.708  0.1256E-02  0.1331E+00
      8.966  0.8892E-03  0.1333E+00
      9.224  0.0000E+00  0.1333E+00
      9.482  0.0000E+00  0.1333E+00
      9.740  0.0000E+00  0.1333E+00
      9.998  0.0000E+00  0.1333E+00
     10.257  0.0000E+00  0.1333E+00
     10.515  0.0000E+00  0.1333E+00
     10.773  0.0000E+00  0.1333E+00
     11.031  0.0000E+00  0.1333E+00
     11.289  0.0000E+00  0.1333E+00
     11.547  0.0000E+00  0.1333E+00
     11.805  0.0000E+00  0.1333E+00
     12.064  0.0000E+00  0.1333E+00
     12.322  0.0000E+00  0.1333E+00
