    3    3  300    1
  0.4389436E+02  0.3183860E-09  0.3183860E-09  0.1500000E-08  0.5000000E-15
  1.000000000000000E-004
  CAR 
 unknown system                          
     26     42     20
 
  0.4166667E-01  0.4166667E-01  0.0000000E+00  0.1388889E-01
    1      -61.602314   1.000000
    2      -35.739539   1.000000
    3      -35.558387   1.000000
    4      -35.543763   1.000000
    5      -14.728349   1.000000
    6      -13.472632   1.000000
    7       -6.249197   1.000000
    8       -3.512261   1.000000
    9       -3.258472   1.000000
   10       -2.907407   1.000000
   11       -2.369262   1.000000
   12       -1.937524   1.000000
   13       -0.772733   1.000000
   14        1.912655   0.000000
   15        2.056712   0.000000
   16        2.163962   0.000000
   17        2.181094   0.000000
   18        4.702018   0.000000
   19        5.198934   0.000000
   20        5.848852   0.000000
 
  0.1250000E+00  0.4166667E-01  0.0000000E+00  0.2777778E-01
    1      -61.596516   1.000000
    2      -35.728005   1.000000
    3      -35.616638   1.000000
    4      -35.557784   1.000000
    5      -14.482954   1.000000
    6      -13.371812   1.000000
    7       -5.989260   1.000000
    8       -3.977543   1.000000
    9       -3.489758   1.000000
   10       -3.009955   1.000000
   11       -2.753377   1.000000
   12       -1.752959   1.000000
   13       -0.953844   1.000000
   14        1.634491   0.000000
   15        1.788177   0.000000
   16        1.938872   0.000000
   17        2.548114   0.000000
   18        5.065334   0.000000
   19        5.522996   0.000000
   20        6.677446   0.000000
 
  0.2083333E+00  0.4166667E-01  0.0000000E+00  0.2777778E-01
    1      -61.587706   1.000000
    2      -35.710453   1.000000
    3      -35.704000   1.000000
    4      -35.579005   1.000000
    5      -14.083672   1.000000
    6      -13.208541   1.000000
    7       -5.717711   1.000000
    8       -4.468899   1.000000
    9       -4.126871   1.000000
   10       -3.204915   1.000000
   11       -2.634237   1.000000
   12       -1.916937   1.000000
   13       -1.348791   1.000000
   14        1.406755   0.000000
   15        1.687280   0.000000
   16        2.009433   0.000000
   17        2.993127   0.000000
   18        5.620093   0.000000
   19        6.064907   0.000000
   20        7.276146   0.000000
 
  0.2916667E+00  0.4166667E-01  0.0000000E+00  0.2777778E-01
    1      -61.578235   1.000000
    2      -35.796433   1.000000
    3      -35.691556   1.000000
    4      -35.601678   1.000000
    5      -13.607293   1.000000
    6      -13.016770   1.000000
    7       -5.849899   1.000000
    8       -4.758784   1.000000
    9       -4.612594   1.000000
   10       -3.565442   1.000000
   11       -2.270593   1.000000
   12       -2.234015   1.000000
   13       -1.644609   1.000000
   14        1.416851   0.000000
   15        1.623507   0.000000
   16        2.483029   0.000000
   17        3.329899   0.000000
   18        6.299364   0.000000
   19        6.711266   0.000000
   20        7.401703   0.000000
 
  0.3750000E+00  0.4166667E-01  0.0000000E+00  0.2777778E-01
    1      -61.570640   1.000000
    2      -35.869452   1.000000
    3      -35.676388   1.000000
    4      -35.619743   1.000000
    5      -13.175040   1.000000
    6      -12.847828   1.000000
    7       -6.226754   1.000000
    8       -5.264440   1.000000
    9       -4.678019   1.000000
   10       -3.793214   1.000000
   11       -2.484318   1.000000
   12       -2.020239   1.000000
   13       -1.509558   1.000000
   14        1.469571   0.000000
   15        1.816468   0.000000
   16        2.925172   0.000000
   17        3.487777   0.000000
   18        6.202463   0.000000
   19        7.118895   0.000000
   20        7.132458   0.000000
 
  0.4583333E+00  0.4166667E-01  0.0000000E+00  0.2777778E-01
    1      -61.566971   1.000000
    2      -35.904384   1.000000
    3      -35.669058   1.000000
    4      -35.628432   1.000000
    5      -12.943795   1.000000
    6      -12.760324   1.000000
    7       -6.450842   1.000000
    8       -5.510894   1.000000
    9       -4.777754   1.000000
   10       -3.889827   1.000000
   11       -2.595191   1.000000
   12       -1.879733   1.000000
   13       -1.297276   1.000000
   14        1.513846   0.000000
   15        2.016827   0.000000
   16        3.162768   0.000000
   17        3.495955   0.000000
   18        5.498737   0.000000
   19        7.309480   0.000000
   20        7.561828   0.000000
 
 -0.4583333E+00  0.4166667E-01  0.0000000E+00  0.2777778E-01
    1      -61.568222   1.000000
    2      -35.892491   1.000000
    3      -35.671560   1.000000
    4      -35.625471   1.000000
    5      -13.024669   1.000000
    6      -12.790660   1.000000
    7       -6.371803   1.000000
    8       -5.426589   1.000000
    9       -4.738033   1.000000
   10       -3.857675   1.000000
   11       -2.558230   1.000000
   12       -1.929061   1.000000
   13       -1.382047   1.000000
   14        1.497655   0.000000
   15        1.936450   0.000000
   16        3.076934   0.000000
   17        3.502437   0.000000
   18        5.761253   0.000000
   19        7.237103   0.000000
   20        7.383618   0.000000
 
 -0.3750000E+00  0.4166667E-01  0.0000000E+00  0.2777778E-01
    1      -61.574052   1.000000
    2      -35.836734   1.000000
    3      -35.683211   1.000000
    4      -35.611632   1.000000
    5      -13.376222   1.000000
    6      -12.925700   1.000000
    7       -6.039979   1.000000
    8       -5.036460   1.000000
    9       -4.630027   1.000000
   10       -3.696021   1.000000
   11       -2.374664   1.000000
   12       -2.135577   1.000000
   13       -1.619460   1.000000
   14        1.440068   0.000000
   15        1.700334   0.000000
   16        2.721960   0.000000
   17        3.432481   0.000000
   18        6.540459   0.000000
   19        6.973237   0.000000
   20        7.002757   0.000000
 
 -0.2916667E+00  0.4166667E-01  0.0000000E+00  0.2777778E-01
    1      -61.582893   1.000000
    2      -35.751186   1.000000
    3      -35.700849   1.000000
    4      -35.590553   1.000000
    5      -13.848669   1.000000
    6      -13.113389   1.000000
    7       -5.719882   1.000000
    8       -4.586321   1.000000
    9       -4.449680   1.000000
   10       -3.401143   1.000000
   11       -2.439632   1.000000
   12       -2.073984   1.000000
   13       -1.543298   1.000000
   14        1.398300   0.000000
   15        1.619085   0.000000
   16        2.233757   0.000000
   17        3.181388   0.000000
   18        5.953627   0.000000
   19        6.388963   0.000000
   20        7.477133   0.000000
 
 -0.2083333E+00  0.4166667E-01  0.0000000E+00  0.2777778E-01
    1      -61.592351   1.000000
    2      -35.719713   1.000000
    3      -35.658087   1.000000
    4      -35.567826   1.000000
    5      -14.298676   1.000000
    6      -13.296280   1.000000
    7       -5.831202   1.000000
    8       -4.246951   1.000000
    9       -3.804252   1.000000
   10       -2.983814   1.000000
   11       -2.831113   1.000000
   12       -1.797223   1.000000
   13       -1.132682   1.000000
   14        1.480410   0.000000
   15        1.802180   0.000000
   16        1.850255   0.000000
   17        2.776193   0.000000
   18        5.320999   0.000000
   19        5.770842   0.000000
   20        7.018517   0.000000
 
 -0.1250000E+00  0.4166667E-01  0.0000000E+00  0.2777778E-01
    1      -61.599914   1.000000
    2      -35.734764   1.000000
    3      -35.582585   1.000000
    4      -35.549570   1.000000
    5      -14.628200   1.000000
    6      -13.431468   1.000000
    7       -6.138203   1.000000
    8       -3.717463   1.000000
    9       -3.187600   1.000000
   10       -3.155838   1.000000
   11       -2.538189   1.000000
   12       -1.804935   1.000000
   13       -0.836140   1.000000
   14        1.823879   0.000000
   15        1.846075   0.000000
   16        2.073277   0.000000
   17        2.333760   0.000000
   18        4.857352   0.000000
   19        5.330486   0.000000
   20        6.239209   0.000000
 
 -0.4166667E-01  0.4166667E-01  0.0000000E+00  0.1388889E-01
    1      -61.603551   1.000000
    2      -35.742009   1.000000
    3      -35.545784   1.000000
    4      -35.540791   1.000000
    5      -14.779426   1.000000
    6      -13.493623   1.000000
    7       -6.307749   1.000000
    8       -3.398538   1.000000
    9       -3.311464   1.000000
   10       -2.693458   1.000000
   11       -2.279070   1.000000
   12       -2.081948   1.000000
   13       -0.746672   1.000000
   14        1.982387   0.000000
   15        2.070655   0.000000
   16        2.192143   0.000000
   17        2.240464   0.000000
   18        4.613559   0.000000
   19        5.132080   0.000000
   20        5.628588   0.000000
 
  0.1250000E+00  0.1250000E+00  0.0000000E+00  0.1388889E-01
    1      -61.589469   1.000000
    2      -35.713965   1.000000
    3      -35.681943   1.000000
    4      -35.579555   1.000000
    5      -14.166737   1.000000
    6      -13.241779   1.000000
    7       -5.728988   1.000000
    8       -4.383106   1.000000
    9       -3.878477   1.000000
   10       -3.394038   1.000000
   11       -2.764214   1.000000
   12       -1.664165   1.000000
   13       -1.249869   1.000000
   14        1.360529   0.000000
   15        1.745895   0.000000
   16        1.759856   0.000000
   17        3.014125   0.000000
   18        5.520309   0.000000
   19        5.956456   0.000000
   20        7.299506   0.000000
 
  0.2083333E+00  0.1250000E+00  0.0000000E+00  0.2777778E-01
    1      -61.580648   1.000000
    2      -35.760651   1.000000
    3      -35.696375   1.000000
    4      -35.608668   1.000000
    5      -13.736121   1.000000
    6      -13.065140   1.000000
    7       -5.671795   1.000000
    8       -4.562228   1.000000
    9       -4.466876   1.000000
   10       -3.825783   1.000000
   11       -2.637971   1.000000
   12       -1.851133   1.000000
   13       -1.532814   1.000000
   14        1.232901   0.000000
   15        1.726947   0.000000
   16        2.023711   0.000000
   17        3.414931   0.000000
   18        6.165449   0.000000
   19        6.576620   0.000000
   20        7.858977   0.000000
 
  0.2916667E+00  0.1250000E+00  0.0000000E+00  0.2777778E-01
    1      -61.572406   1.000000
    2      -35.832563   1.000000
    3      -35.679938   1.000000
    4      -35.636255   1.000000
    5      -13.286917   1.000000
    6      -12.882871   1.000000
    7       -5.943028   1.000000
    8       -5.132464   1.000000
    9       -4.535926   1.000000
   10       -3.927557   1.000000
   11       -2.696074   1.000000
   12       -2.205960   1.000000
   13       -1.471017   1.000000
   14        1.394831   0.000000
   15        1.803583   0.000000
   16        2.465998   0.000000
   17        3.596521   0.000000
   18        6.731491   0.000000
   19        7.253030   0.000000
   20        7.286588   0.000000
 
  0.3750000E+00  0.1250000E+00  0.0000000E+00  0.2777778E-01
    1      -61.566969   1.000000
    2      -35.879386   1.000000
    3      -35.669082   1.000000
    4      -35.654493   1.000000
    5      -12.955769   1.000000
    6      -12.751027   1.000000
    7       -6.195587   1.000000
    8       -5.571308   1.000000
    9       -4.662172   1.000000
   10       -3.908013   1.000000
   11       -2.653079   1.000000
   12       -2.508197   1.000000
   13       -1.218733   1.000000
   14        1.507392   0.000000
   15        2.032182   0.000000
   16        2.869119   0.000000
   17        3.541958   0.000000
   18        5.964034   0.000000
   19        7.826144   0.000000
   20        7.846472   0.000000
 
  0.4583333E+00  0.1250000E+00  0.0000000E+00  0.2777778E-01
    1      -61.565807   1.000000
    2      -35.889374   1.000000
    3      -35.666752   1.000000
    4      -35.658405   1.000000
    5      -12.880099   1.000000
    6      -12.721320   1.000000
    7       -6.254029   1.000000
    8       -5.664949   1.000000
    9       -4.712521   1.000000
   10       -3.893603   1.000000
   11       -2.630758   1.000000
   12       -2.581504   1.000000
   13       -1.130610   1.000000
   14        1.490563   0.000000
   15        2.144589   0.000000
   16        2.991477   0.000000
   17        3.483038   0.000000
   18        5.710676   0.000000
   19        8.099750   0.000000
   20        8.110890   0.000000
 
 -0.4583333E+00  0.1250000E+00  0.0000000E+00  0.2777778E-01
    1      -61.569223   1.000000
    2      -35.860040   1.000000
    3      -35.673581   1.000000
    4      -35.646937   1.000000
    5      -13.097006   1.000000
    6      -12.806926   1.000000
    7       -6.086773   1.000000
    8       -5.389997   1.000000
    9       -4.588030   1.000000
   10       -3.924781   1.000000
   11       -2.684567   1.000000
   12       -2.375912   1.000000
   13       -1.349642   1.000000
   14        1.489433   0.000000
   15        1.890130   0.000000
   16        2.683207   0.000000
   17        3.592952   0.000000
   18        6.386470   0.000000
   19        7.481411   0.000000
   20        7.558197   0.000000
 
 -0.3750000E+00  0.1250000E+00  0.0000000E+00  0.2777778E-01
    1      -61.576305   1.000000
    2      -35.798707   1.000000
    3      -35.687713   1.000000
    4      -35.623190   1.000000
    5      -13.506137   1.000000
    6      -12.971452   1.000000
    7       -5.789842   1.000000
    8       -4.815915   1.000000
    9       -4.537867   1.000000
   10       -3.900582   1.000000
   11       -2.668163   1.000000
   12       -2.022156   1.000000
   13       -1.543984   1.000000
   14        1.284847   0.000000
   15        1.758691   0.000000
   16        2.237911   0.000000
   17        3.537545   0.000000
   18        6.520527   0.000000
   19        6.920102   0.000000
   20        7.652730   0.000000
 
 -0.2916667E+00  0.1250000E+00  0.0000000E+00  0.2777778E-01
    1      -61.585140   1.000000
    2      -35.720865   1.000000
    3      -35.705329   1.000000
    4      -35.593748   1.000000
    5      -13.960747   1.000000
    6      -13.157151   1.000000
    7       -5.647844   1.000000
    8       -4.523788   1.000000
    9       -4.134215   1.000000
   10       -3.669486   1.000000
   11       -2.668188   1.000000
   12       -1.722777   1.000000
   13       -1.420924   1.000000
   14        1.262311   0.000000
   15        1.716051   0.000000
   16        1.854710   0.000000
   17        3.235899   0.000000
   18        5.823748   0.000000
   19        6.248892   0.000000
   20        7.586810   0.000000
 
 -0.2083333E+00  0.1250000E+00  0.0000000E+00  0.2777778E-01
    1      -61.593350   1.000000
    2      -35.721698   1.000000
    3      -35.646427   1.000000
    4      -35.567226   1.000000
    5      -14.343504   1.000000
    6      -13.314477   1.000000
    7       -5.860340   1.000000
    8       -4.182442   1.000000
    9       -3.678458   1.000000
   10       -3.055247   1.000000
   11       -2.889389   1.000000
   12       -1.683638   1.000000
   13       -1.082081   1.000000
   14        1.494587   0.000000
   15        1.747246   0.000000
   16        1.827288   0.000000
   17        2.772431   0.000000
   18        5.265169   0.000000
   19        5.711820   0.000000
   20        6.997668   0.000000
 
 -0.1250000E+00  0.1250000E+00  0.0000000E+00  0.1388889E-01
    1      -61.598756   1.000000
    2      -35.732460   1.000000
    3      -35.594652   1.000000
    4      -35.551939   1.000000
    5      -14.579144   1.000000
    6      -13.411329   1.000000
    7       -6.086618   1.000000
    8       -3.811484   1.000000
    9       -3.312392   1.000000
   10       -3.103727   1.000000
   11       -2.574683   1.000000
   12       -1.805683   1.000000
   13       -0.873515   1.000000
   14        1.761493   0.000000
   15        1.824174   0.000000
   16        2.031332   0.000000
   17        2.393232   0.000000
   18        4.927537   0.000000
   19        5.394991   0.000000
   20        6.397766   0.000000
 
  0.2083333E+00  0.2083333E+00  0.0000000E+00  0.1388889E-01
    1      -61.573063   1.000000
    2      -35.811587   1.000000
    3      -35.681239   1.000000
    4      -35.649917   1.000000
    5      -13.328003   1.000000
    6      -12.894379   1.000000
    7       -5.785673   1.000000
    8       -5.059795   1.000000
    9       -4.422746   1.000000
   10       -4.045075   1.000000
   11       -3.065016   1.000000
   12       -2.027875   1.000000
   13       -1.481892   1.000000
   14        1.338005   0.000000
   15        1.824316   0.000000
   16        2.195334   0.000000
   17        3.694859   0.000000
   18        6.831304   0.000000
   19        7.248808   0.000000
   20        7.634560   0.000000
 
  0.2916667E+00  0.2083333E+00  0.0000000E+00  0.2777778E-01
    1      -61.566978   1.000000
    2      -35.846547   1.000000
    3      -35.688393   1.000000
    4      -35.669106   1.000000
    5      -12.967568   1.000000
    6      -12.741682   1.000000
    7       -5.883106   1.000000
    8       -5.626236   1.000000
    9       -4.424646   1.000000
   10       -3.946356   1.000000
   11       -3.458894   1.000000
   12       -2.388518   1.000000
   13       -1.244931   1.000000
   14        1.450641   0.000000
   15        2.075819   0.000000
   16        2.434343   0.000000
   17        3.813792   0.000000
   18        6.627782   0.000000
   19        7.717225   0.000000
   20        7.958886   0.000000
 
  0.3750000E+00  0.2083333E+00  0.0000000E+00  0.2777778E-01
    1      -61.564043   1.000000
    2      -35.861581   1.000000
    3      -35.708679   1.000000
    4      -35.663246   1.000000
    5      -12.780162   1.000000
    6      -12.661678   1.000000
    7       -5.902537   1.000000
    8       -5.892692   1.000000
    9       -4.622033   1.000000
   10       -3.803251   1.000000
   11       -3.539949   1.000000
   12       -2.662014   1.000000
   13       -0.987263   1.000000
   14        1.273856   0.000000
   15        2.451006   0.000000
   16        2.563418   0.000000
   17        3.844401   0.000000
   18        6.043288   0.000000
   19        7.946367   0.000000
   20        8.532429   0.000000
 
  0.4583333E+00  0.2083333E+00  0.0000000E+00  0.2777778E-01
    1      -61.565044   1.000000
    2      -35.856594   1.000000
    3      -35.701626   1.000000
    4      -35.665246   1.000000
    5      -12.845198   1.000000
    6      -12.689480   1.000000
    7       -5.894602   1.000000
    8       -5.808275   1.000000
    9       -4.534847   1.000000
   10       -3.863062   1.000000
   11       -3.522888   1.000000
   12       -2.557385   1.000000
   13       -1.092888   1.000000
   14        1.357441   0.000000
   15        2.299798   0.000000
   16        2.519025   0.000000
   17        3.835930   0.000000
   18        6.267804   0.000000
   19        7.879682   0.000000
   20        8.288046   0.000000
 
 -0.4583333E+00  0.2083333E+00  0.0000000E+00  0.2777778E-01
    1      -61.569715   1.000000
    2      -35.831451   1.000000
    3      -35.674562   1.000000
    4      -35.670515   1.000000
    5      -13.133878   1.000000
    6      -12.812338   1.000000
    7       -5.846229   1.000000
    8       -5.369487   1.000000
    9       -4.379150   1.000000
   10       -4.016491   1.000000
   11       -3.303244   1.000000
   12       -2.199726   1.000000
   13       -1.384015   1.000000
   14        1.451776   0.000000
   15        1.897476   0.000000
   16        2.319892   0.000000
   17        3.769874   0.000000
   18        6.938227   0.000000
   19        7.520151   0.000000
   20        7.607617   0.000000
 
 -0.3750000E+00  0.2083333E+00  0.0000000E+00  0.2777778E-01
    1      -61.576792   1.000000
    2      -35.787622   1.000000
    3      -35.688680   1.000000
    4      -35.628644   1.000000
    5      -13.533675   1.000000
    6      -12.980744   1.000000
    7       -5.717923   1.000000
    8       -4.736505   1.000000
    9       -4.505171   1.000000
   10       -3.998623   1.000000
   11       -2.816339   1.000000
   12       -1.904331   1.000000
   13       -1.533850   1.000000
   14        1.239091   0.000000
   15        1.778723   0.000000
   16        2.088165   0.000000
   17        3.578864   0.000000
   18        6.501389   0.000000
   19        6.898868   0.000000
   20        7.894433   0.000000
 
 -0.2916667E+00  0.2083333E+00  0.0000000E+00  0.2777778E-01
    1      -61.584371   1.000000
    2      -35.732160   1.000000
    3      -35.703801   1.000000
    4      -35.591698   1.000000
    5      -13.922823   1.000000
    6      -13.142417   1.000000
    7       -5.672886   1.000000
    8       -4.550080   1.000000
    9       -4.281288   1.000000
   10       -3.525255   1.000000
   11       -2.582418   1.000000
   12       -1.868319   1.000000
   13       -1.465115   1.000000
   14        1.311187   0.000000
   15        1.685127   0.000000
   16        2.007603   0.000000
   17        3.208691   0.000000
   18        5.865970   0.000000
   19        6.295858   0.000000
   20        7.540156   0.000000
 
 -0.2083333E+00  0.2083333E+00  0.0000000E+00  0.1388889E-01
    1      -61.590428   1.000000
    2      -35.715878   1.000000
    3      -35.678400   1.000000
    4      -35.571186   1.000000
    5      -14.210841   1.000000
    6      -13.260529   1.000000
    7       -5.778883   1.000000
    8       -4.354045   1.000000
    9       -3.967360   1.000000
   10       -3.000000   1.000000
   11       -2.734399   1.000000
   12       -1.910021   1.000000
   13       -1.227165   1.000000
   14        1.457268   0.000000
   15        1.745016   0.000000
   16        1.965404   0.000000
   17        2.834818   0.000000
   18        5.437725   0.000000
   19        5.888899   0.000000
   20        7.101099   0.000000
 
  0.2916667E+00  0.2916667E+00  0.0000000E+00  0.1388889E-01
    1      -61.563394   1.000000
    2      -35.836457   1.000000
    3      -35.742165   1.000000
    4      -35.661965   1.000000
    5      -12.745192   1.000000
    6      -12.637742   1.000000
    7       -6.000551   1.000000
    8       -5.614471   1.000000
    9       -4.467707   1.000000
   10       -4.142333   1.000000
   11       -3.737907   1.000000
   12       -2.713111   1.000000
   13       -0.924133   1.000000
   14        1.136315   0.000000
   15        2.375676   0.000000
   16        2.585083   0.000000
   17        4.032006   0.000000
   18        6.475395   0.000000
   19        7.252446   0.000000
   20        8.599461   0.000000
 
  0.3750000E+00  0.2916667E+00  0.0000000E+00  0.2777778E-01
    1      -61.562626   1.000000
    2      -35.828291   1.000000
    3      -35.759711   1.000000
    4      -35.660435   1.000000
    5      -12.696223   1.000000
    6      -12.614122   1.000000
    7       -6.083384   1.000000
    8       -5.462982   1.000000
    9       -4.649279   1.000000
   10       -4.217042   1.000000
   11       -3.646801   1.000000
   12       -2.829718   1.000000
   13       -0.806825   1.000000
   14        1.004307   0.000000
   15        2.357035   0.000000
   16        2.737096   0.000000
   17        4.090321   0.000000
   18        6.414391   0.000000
   19        7.092919   0.000000
   20        8.801549   0.000000
 
  0.4583333E+00  0.2916667E+00  0.0000000E+00  0.2777778E-01
    1      -61.564879   1.000000
    2      -35.844004   1.000000
    3      -35.716515   1.000000
    4      -35.664924   1.000000
    5      -12.838498   1.000000
    6      -12.681984   1.000000
    7       -5.842747   1.000000
    8       -5.772179   1.000000
    9       -4.399497   1.000000
   10       -3.856941   1.000000
   11       -3.854441   1.000000
   12       -2.548176   1.000000
   13       -1.089797   1.000000
   14        1.315871   0.000000
   15        2.337395   0.000000
   16        2.405459   0.000000
   17        3.931109   0.000000
   18        6.548921   0.000000
   19        7.543600   0.000000
   20        8.299558   0.000000
 
 -0.4583333E+00  0.2916667E+00  0.0000000E+00  0.2777778E-01
    1      -61.569546   1.000000
    2      -35.842754   1.000000
    3      -35.674227   1.000000
    4      -35.660901   1.000000
    5      -13.121175   1.000000
    6      -12.810670   1.000000
    7       -5.938340   1.000000
    8       -5.377286   1.000000
    9       -4.477220   1.000000
   10       -3.980335   1.000000
   11       -3.055251   1.000000
   12       -2.267664   1.000000
   13       -1.368567   1.000000
   14        1.467771   0.000000
   15        1.892399   0.000000
   16        2.453532   0.000000
   17        3.702263   0.000000
   18        6.714154   0.000000
   19        7.510660   0.000000
   20        7.600019   0.000000
 
 -0.3750000E+00  0.2916667E+00  0.0000000E+00  0.2777778E-01
    1      -61.575373   1.000000
    2      -35.816680   1.000000
    3      -35.685848   1.000000
    4      -35.616136   1.000000
    5      -13.452615   1.000000
    6      -12.952996   1.000000
    7       -5.908652   1.000000
    8       -4.925413   1.000000
    9       -4.585218   1.000000
   10       -3.775560   1.000000
   11       -2.418980   1.000000
   12       -2.205110   1.000000
   13       -1.570550   1.000000
   14        1.363441   0.000000
   15        1.724080   0.000000
   16        2.480130   0.000000
   17        3.474993   0.000000
   18        6.547604   0.000000
   19        6.951461   0.000000
   20        7.299438   0.000000
 
 -0.2916667E+00  0.2916667E+00  0.0000000E+00  0.1388889E-01
    1      -61.580799   1.000000
    2      -35.773742   1.000000
    3      -35.696671   1.000000
    4      -35.593309   1.000000
    5      -13.741728   1.000000
    6      -13.070993   1.000000
    7       -5.782333   1.000000
    8       -4.611839   1.000000
    9       -4.607517   1.000000
   10       -3.405869   1.000000
   11       -2.300063   1.000000
   12       -2.214652   1.000000
   13       -1.625925   1.000000
   14        1.498892   0.000000
   15        1.529755   0.000000
   16        2.416228   0.000000
   17        3.211336   0.000000
   18        6.095410   0.000000
   19        6.526822   0.000000
   20        7.443580   0.000000
 
  0.3750000E+00  0.3750000E+00  0.0000000E+00  0.1388889E-01
    1      -61.563108   1.000000
    2      -35.844533   1.000000
    3      -35.737404   1.000000
    4      -35.661393   1.000000
    5      -12.724770   1.000000
    6      -12.630700   1.000000
    7       -6.020479   1.000000
    8       -5.663649   1.000000
    9       -4.619160   1.000000
   10       -3.952327   1.000000
   11       -3.712612   1.000000
   12       -2.760728   1.000000
   13       -0.878261   1.000000
   14        1.111486   0.000000
   15        2.430217   0.000000
   16        2.634238   0.000000
   17        3.999654   0.000000
   18        6.208945   0.000000
   19        7.471264   0.000000
   20        8.706426   0.000000
 
  0.4583333E+00  0.3750000E+00  0.0000000E+00  0.2777778E-01
    1      -61.565359   1.000000
    2      -35.873794   1.000000
    3      -35.680046   1.000000
    4      -35.665868   1.000000
    5      -12.858939   1.000000
    6      -12.703287   1.000000
    7       -6.077074   1.000000
    8       -5.745258   1.000000
    9       -4.640914   1.000000
   10       -3.878148   1.000000
   11       -3.086577   1.000000
   12       -2.570292   1.000000
   13       -1.103320   1.000000
   14        1.425151   0.000000
   15        2.230375   0.000000
   16        2.727111   0.000000
   17        3.671659   0.000000
   18        5.960572   0.000000
   19        8.179690   0.000000
   20        8.257889   0.000000
 
 -0.4583333E+00  0.3750000E+00  0.0000000E+00  0.2777778E-01
    1      -61.568771   1.000000
    2      -35.877847   1.000000
    3      -35.672669   1.000000
    4      -35.633967   1.000000
    5      -13.063752   1.000000
    6      -12.800463   1.000000
    7       -6.244095   1.000000
    8       -5.405656   1.000000
    9       -4.676736   1.000000
   10       -3.876500   1.000000
   11       -2.483878   1.000000
   12       -2.285363   1.000000
   13       -1.347759   1.000000
   14        1.500735   0.000000
   15        1.903472   0.000000
   16        2.932033   0.000000
   17        3.497574   0.000000
   18        6.048423   0.000000
   19        7.426035   0.000000
   20        7.426574   0.000000
 
 -0.3750000E+00  0.3750000E+00  0.0000000E+00  0.1388889E-01
    1      -61.572441   1.000000
    2      -35.855180   1.000000
    3      -35.679985   1.000000
    4      -35.612387   1.000000
    5      -13.281645   1.000000
    6      -12.890232   1.000000
    7       -6.153509   1.000000
    8       -5.145881   1.000000
    9       -4.662414   1.000000
   10       -3.709079   1.000000
   11       -2.466523   1.000000
   12       -1.933082   1.000000
   13       -1.647889   1.000000
   14        1.464617   0.000000
   15        1.737215   0.000000
   16        2.870905   0.000000
   17        3.449850   0.000000
   18        6.400119   0.000000
   19        6.950230   0.000000
   20        7.002817   0.000000
 
  0.4583333E+00  0.4583333E+00  0.0000000E+00  0.1388889E-01
    1      -61.566358   1.000000
    2      -35.900092   1.000000
    3      -35.667839   1.000000
    4      -35.640479   1.000000
    5      -12.908678   1.000000
    6      -12.741107   1.000000
    7       -6.385103   1.000000
    8       -5.582099   1.000000
    9       -4.757649   1.000000
   10       -3.899825   1.000000
   11       -2.589833   1.000000
   12       -2.210320   1.000000
   13       -1.190204   1.000000
   14        1.522170   0.000000
   15        2.068234   0.000000
   16        3.217713   0.000000
   17        3.356175   0.000000
   18        5.549870   0.000000
   19        7.676770   0.000000
   20        7.817099   0.000000
 
 -0.4583333E+00  0.4583333E+00  0.0000000E+00  0.1388889E-01
    1      -61.567605   1.000000
    2      -35.901737   1.000000
    3      -35.670328   1.000000