       N       E                     dE             d eps       ncg     rms          rms(c)
DAV:   1    -0.218466886648E+02   -0.21847E+02   -0.44247E-05  2160   0.572E-02    0.171E-04
DAV:   2    -0.218466886614E+02    0.34215E-08   -0.10455E-08  2120   0.397E-04
   1 F= -.21846689E+02 E0= -.21846689E+02  d E =-.218467E+02
       N       E                     dE             d eps       ncg     rms          rms(c)
DAV:   1    -0.218466886603E+02    0.44743E-08   -0.37905E-09  1880   0.304E-04    0.550E-05
DAV:   2    -0.218466886590E+02    0.13065E-08   -0.23903E-10  2220   0.956E-05
   2 F= -.21846689E+02 E0= -.21846689E+02  d E =0.235923E-08
