<?xml version="1.0" encoding="ISO-8859-1"?>
<modeling>
 <generator>
  <i name="program" type="string">vasp </i>
  <i name="version" type="string">5.4.4.18Apr17-6-g9f103f2a35  </i>
  <i name="subversion" type="string">(build Apr 28 2023 10:04:10) complex            parallel </i>
  <i name="platform" type="string">LinuxIFC </i>
  <i name="date" type="string">2023 11 10 </i>
  <i name="time" type="string">21:09:23 </i>
 </generator>
 <incar>
  <i type="int" name="ISTART">     1</i>
  <i type="string" name="PREC">accurate     (precision level)</i>
  <i type="logical" name="ADDGRID"> T  </i>
  <i type="int" name="ISPIN">     1</i>
  <i type="int" name="IBRION">     2</i>
  <i name="EDIFF">      0.00000001</i>
  <i name="EDIFFG">     -0.00001500</i>
  <i type="int" name="NSW">   300</i>
  <i type="int" name="ISIF">     2</i>
  <i name="ENCUT">    520.00000000</i>
  <i type="logical" name="LREAL"> F  </i>
  <i type="int" name="ISMEAR">     0</i>
  <i name="SIGMA">      0.05000000</i>
  <i type="logical" name="LWAVE"> T  </i>
  <i type="logical" name="LCHARG"> T  </i>
  <v type="int" name="KPOINT_BSE">    -1     0     0     0</v>
 </incar>
 <structure name="primitive_cell" >
  <crystal>
   <varray name="basis" >
    <v>       3.18386047       0.00000000       0.00000000 </v>
    <v>      -1.59193023       2.75730405       0.00000000 </v>
    <v>       0.00000000       0.00000000      15.00000000 </v>
   </varray>
   <i name="volume">    131.68307038 </i>
   <varray name="rec_basis" >
    <v>       0.31408412       0.18133655       0.00000000 </v>
    <v>       0.00000000       0.36267310       0.00000000 </v>
    <v>       0.00000000       0.00000000       0.06666667 </v>
   </varray>
  </crystal>
  <varray name="positions" >
   <v>      -0.33333331       0.33333334       0.25000000 </v>
   <v>       0.33333334      -0.33333331       0.35415206 </v>
   <v>       0.33333334      -0.33333331       0.14584794 </v>
  </varray>
 </structure>
 <varray name="primitive_index" >
  <v type="int" >        1 </v>
  <v type="int" >        2 </v>
  <v type="int" >        3 </v>
 </varray>
 <kpoints>
  <generation param="Monkhorst-Pack">
   <v type="int" name="divisions">      12       12        1 </v>
   <v name="usershift">      0.00000000       0.00000000       0.00000000 </v>
   <v name="genvec1">      0.08333333       0.00000000       0.00000000 </v>
   <v name="genvec2">      0.00000000       0.08333333       0.00000000 </v>
   <v name="genvec3">      0.00000000       0.00000000       1.00000000 </v>
   <v name="shift">      0.50000000       0.50000000       0.00000000 </v>
  </generation>
  <varray name="kpointlist" >
   <v>       0.04166667       0.04166667       0.00000000 </v>
   <v>       0.12500000       0.04166667       0.00000000 </v>
   <v>       0.20833333       0.04166667       0.00000000 </v>
   <v>       0.29166667       0.04166667       0.00000000 </v>
   <v>       0.37500000       0.04166667       0.00000000 </v>
   <v>       0.45833333       0.04166667       0.00000000 </v>
   <v>      -0.45833333       0.04166667       0.00000000 </v>
   <v>      -0.37500000       0.04166667       0.00000000 </v>
   <v>      -0.29166667       0.04166667       0.00000000 </v>
   <v>      -0.20833333       0.04166667       0.00000000 </v>
   <v>      -0.12500000       0.04166667       0.00000000 </v>
   <v>      -0.04166667       0.04166667       0.00000000 </v>
   <v>       0.12500000       0.12500000       0.00000000 </v>
   <v>       0.20833333       0.12500000       0.00000000 </v>
   <v>       0.29166667       0.12500000       0.00000000 </v>
   <v>       0.37500000       0.12500000       0.00000000 </v>
   <v>       0.45833333       0.12500000       0.00000000 </v>
   <v>      -0.45833333       0.12500000       0.00000000 </v>
   <v>      -0.37500000       0.12500000       0.00000000 </v>
   <v>      -0.29166667       0.12500000       0.00000000 </v>
   <v>      -0.20833333       0.12500000       0.00000000 </v>
   <v>      -0.12500000       0.12500000       0.00000000 </v>
   <v>       0.20833333       0.20833333       0.00000000 </v>
   <v>       0.29166667       0.20833333       0.00000000 </v>
   <v>       0.37500000       0.20833333       0.00000000 </v>
   <v>       0.45833333       0.20833333       0.00000000 </v>
   <v>      -0.45833333       0.20833333       0.00000000 </v>
   <v>      -0.37500000       0.20833333       0.00000000 </v>
   <v>      -0.29166667       0.20833333       0.00000000 </v>
   <v>      -0.20833333       0.20833333       0.00000000 </v>
   <v>       0.29166667       0.29166667       0.00000000 </v>
   <v>       0.37500000       0.29166667       0.00000000 </v>
   <v>       0.45833333       0.29166667       0.00000000 </v>
   <v>      -0.45833333       0.29166667       0.00000000 </v>
   <v>      -0.37500000       0.29166667       0.00000000 </v>
   <v>      -0.29166667       0.29166667       0.00000000 </v>
   <v>       0.37500000       0.37500000       0.00000000 </v>
   <v>       0.45833333       0.37500000       0.00000000 </v>
   <v>      -0.45833333       0.37500000       0.00000000 </v>
   <v>      -0.37500000       0.37500000       0.00000000 </v>
   <v>       0.45833333       0.45833333       0.00000000 </v>
   <v>      -0.45833333       0.45833333       0.00000000 </v>
  </varray>
  <varray name="weights" >
   <v>       0.01388889 </v>
   <v>       0.02777778 </v>
   <v>       0.02777778 </v>
   <v>       0.02777778 </v>
   <v>       0.02777778 </v>
   <v>       0.02777778 </v>
   <v>       0.02777778 </v>
   <v>       0.02777778 </v>
   <v>       0.02777778 </v>
   <v>       0.02777778 </v>
   <v>       0.02777778 </v>
   <v>       0.01388889 </v>
   <v>       0.01388889 </v>
   <v>       0.02777778 </v>
   <v>       0.02777778 </v>
   <v>       0.02777778 </v>
   <v>       0.02777778 </v>
   <v>       0.02777778 </v>
   <v>       0.02777778 </v>
   <v>       0.02777778 </v>
   <v>       0.02777778 </v>
   <v>       0.01388889 </v>
   <v>       0.01388889 </v>
   <v>       0.02777778 </v>
   <v>       0.02777778 </v>
   <v>       0.02777778 </v>
   <v>       0.02777778 </v>
   <v>       0.02777778 </v>
   <v>       0.02777778 </v>
   <v>       0.01388889 </v>
   <v>       0.01388889 </v>
   <v>       0.02777778 </v>
   <v>       0.02777778 </v>
   <v>       0.02777778 </v>
   <v>       0.02777778 </v>
   <v>       0.01388889 </v>
   <v>       0.01388889 </v>
   <v>       0.02777778 </v>
   <v>       0.02777778 </v>
   <v>       0.01388889 </v>
   <v>       0.01388889 </v>
   <v>       0.01388889 </v>
  </varray>
 </kpoints>
 <parameters>
  <separator name="general" >
   <i type="string" name="SYSTEM">unknown system</i>
   <i type="logical" name="LCOMPAT"> F  </i>
  </separator>
  <separator name="electronic" >
   <i type="string" name="PREC">accura</i>
   <i name="ENMAX">    520.00000000</i>
   <i name="ENAUG">    446.01400000</i>
   <i name="EDIFF">      0.00000001</i>
   <i type="int" name="IALGO">    38</i>
   <i type="int" name="IWAVPR">    11</i>
   <i type="int" name="NBANDS">    20</i>
   <i name="NELECT">     26.00000000</i>
   <i type="int" name="TURBO">     0</i>
   <i type="int" name="IRESTART">     0</i>
   <i type="int" name="NREBOOT">     0</i>
   <i type="int" name="NMIN">     0</i>
   <i name="EREF">      0.00000000</i>
   <separator name="electronic smearing" >
    <i type="int" name="ISMEAR">     0</i>
    <i name="SIGMA">      0.05000000</i>
    <i name="KSPACING">      0.50000000</i>
    <i type="logical" name="KGAMMA"> T  </i>
   </separator>
   <separator name="electronic projectors" >
    <i type="logical" name="LREAL"> F  </i>
    <v name="ROPT">      0.00000000      0.00000000</v>
    <i type="int" name="LMAXPAW">  -100</i>
    <i type="int" name="LMAXMIX">     2</i>
    <i type="logical" name="NLSPLINE"> F  </i>
   </separator>
   <separator name="electronic startup" >
    <i type="int" name="ISTART">     1</i>
    <i type="int" name="ICHARG">     0</i>
    <i type="int" name="INIWAV">     1</i>
   </separator>
   <separator name="electronic spin" >
    <i type="int" name="ISPIN">     1</i>
    <i type="logical" name="LNONCOLLINEAR"> F  </i>
    <v name="MAGMOM">      1.00000000      1.00000000      1.00000000</v>
    <i name="NUPDOWN">     -1.00000000</i>
    <i type="logical" name="LSORBIT"> F  </i>
    <v name="SAXIS">      0.00000000      0.00000000      1.00000000</v>
    <i type="logical" name="LSPIRAL"> F  </i>
    <v name="QSPIRAL">      0.00000000      0.00000000      0.00000000</v>
    <i type="logical" name="LZEROZ"> F  </i>
   </separator>
   <separator name="electronic exchange-correlation" >
    <i type="logical" name="LASPH"> F  </i>
    <i type="logical" name="LMETAGGA"> F  </i>
   </separator>
   <separator name="electronic convergence" >
    <i type="int" name="NELM">    60</i>
    <i type="int" name="NELMDL">     0</i>
    <i type="int" name="NELMIN">     2</i>
    <i name="ENINI">    520.00000000</i>
    <separator name="electronic convergence detail" >
     <i type="logical" name="LDIAG"> T  </i>
     <i type="logical" name="LSUBROT"> F  </i>
     <i name="WEIMIN">      0.00100000</i>
     <i name="EBREAK">      0.00000000</i>
     <i name="DEPER">      0.30000000</i>
     <i type="int" name="NRMM">     4</i>
     <i name="TIME">      0.40000000</i>
    </separator>
   </separator>
   <separator name="electronic mixer" >
    <i name="AMIX">      0.40000000</i>
    <i name="BMIX">      1.00000000</i>
    <i name="AMIN">      0.10000000</i>
    <i name="AMIX_MAG">      1.60000000</i>
    <i name="BMIX_MAG">      1.00000000</i>
    <separator name="electronic mixer details" >
     <i type="int" name="IMIX">     4</i>
     <i type="logical" name="MIXFIRST"> F  </i>
     <i type="int" name="MAXMIX">   -45</i>
     <i name="WC">    100.00000000</i>
     <i type="int" name="INIMIX">     1</i>
     <i type="int" name="MIXPRE">     1</i>
     <i type="int" name="MREMOVE">     5</i>
    </separator>
   </separator>
   <separator name="electronic dipolcorrection" >
    <i type="logical" name="LDIPOL"> F  </i>
    <i type="logical" name="LMONO"> F  </i>
    <i type="int" name="IDIPOL">     0</i>
    <i name="EPSILON">      1.00000000</i>
    <v name="DIPOL">   -100.00000000   -100.00000000   -100.00000000</v>
    <i name="EFIELD">      0.00000000</i>
   </separator>
  </separator>
  <separator name="grids" >
   <i type="int" name="NGX">    24</i>
   <i type="int" name="NGY">    24</i>
   <i type="int" name="NGZ">   112</i>
   <i type="int" name="NGXF">    48</i>
   <i type="int" name="NGYF">    48</i>
   <i type="int" name="NGZF">   224</i>
   <i type="logical" name="ADDGRID"> T  </i>
  </separator>
  <separator name="ionic" >
   <i type="int" name="NSW">   300</i>
   <i type="int" name="IBRION">     2</i>
   <i type="int" name="MDALGO">     0</i>
   <i type="int" name="ISIF">     2</i>
   <i name="PSTRESS">      0.00000000</i>
   <i name="EDIFFG">     -0.00001500</i>
   <i type="int" name="NFREE">     1</i>
   <i name="POTIM">      0.50000000</i>
   <i name="SMASS">     -3.00000000</i>
   <i name="SCALEE">      1.00000000</i>
  </separator>
  <separator name="ionic md" >
   <i name="TEBEG">      0.00010000</i>
   <i name="TEEND">      0.00010000</i>
   <i type="int" name="NBLOCK">     1</i>
   <i type="int" name="KBLOCK">   300</i>
   <i type="int" name="NPACO">   256</i>
   <i name="APACO">     16.00000000</i>
  </separator>
  <separator name="symmetry" >
   <i type="int" name="ISYM">     2</i>
   <i name="SYMPREC">      0.00001000</i>
  </separator>
  <separator name="dos" >
   <i type="int" name="LORBIT">     0</i>
   <v name="RWIGS">     -1.00000000     -1.00000000</v>
   <i type="int" name="NEDOS">   301</i>
   <i name="EMIN">     10.00000000</i>
   <i name="EMAX">    -10.00000000</i>
   <i name="EFERMI">      0.00000000</i>
  </separator>
  <separator name="writing" >
   <i type="int" name="NWRITE">     2</i>
   <i type="logical" name="LWAVE"> T  </i>
   <i type="logical" name="LDOWNSAMPLE"> F  </i>
   <i type="logical" name="LCHARG"> T  </i>
   <i type="logical" name="LPARD"> F  </i>
   <i type="logical" name="LVTOT"> F  </i>
   <i type="logical" name="LVHAR"> F  </i>
   <i type="logical" name="LELF"> F  </i>
   <i type="logical" name="LOPTICS"> F  </i>
   <v name="STM">      0.00000000      0.00000000      0.00000000      0.00000000      0.00000000      0.00000000      0.00000000</v>
  </separator>
  <separator name="performance" >
   <i type="int" name="NPAR">    20</i>
   <i type="int" name="NSIM">     4</i>
   <i type="int" name="NBLK">    -1</i>
   <i type="logical" name="LPLANE"> T  </i>
   <i type="logical" name="LSCALAPACK"> T  </i>
   <i type="logical" name="LSCAAWARE"> F  </i>
   <i type="logical" name="LSCALU"> F  </i>
   <i type="logical" name="LASYNC"> F  </i>
   <i type="logical" name="LORBITALREAL"> F  </i>
  </separator>
  <separator name="miscellaneous" >
   <i type="int" name="IDIOT">     3</i>
   <i type="int" name="ISPECIAL">     0</i>
   <i type="logical" name="LMUSIC"> F  </i>
   <v name="POMASS">     95.94000000     32.06600000</v>
   <v name="DARWINR">      0.00000000      0.00000000</v>
   <v name="DARWINV">      1.00000000      1.00000000</v>
   <i type="logical" name="LCORR"> T  </i>
  </separator>
  <i type="logical" name="GGA_COMPAT"> T  </i>
  <i type="logical" name="LBERRY"> F  </i>
  <i type="int" name="ICORELEVEL">     0</i>
  <i type="logical" name="LDAU"> F  </i>
  <i type="int" name="I_CONSTRAINED_M">     0</i>
  <separator name="electronic exchange-correlation" >
   <i type="string" name="GGA">--</i>
   <i type="int" name="VOSKOWN">     0</i>
   <i type="logical" name="LHFCALC"> F  </i>
   <i type="string" name="PRECFOCK"></i>
   <i type="logical" name="LSYMGRAD"> F  </i>
   <i type="logical" name="LHFONE"> F  </i>
   <i type="logical" name="LRHFCALC"> F  </i>
   <i type="logical" name="LTHOMAS"> F  </i>
   <i type="logical" name="LMODELHF"> F  </i>
   <i name="ENCUT4O">     -1.00000000</i>
   <i type="int" name="EXXOEP">     0</i>
   <i type="int" name="FOURORBIT">     0</i>
   <i name="AEXX">      0.00000000</i>
   <i name="HFALPHA">      0.00000000</i>
   <i name="MCALPHA">      0.00000000</i>
   <i name="ALDAX">      1.00000000</i>
   <i name="AGGAX">      1.00000000</i>
   <i name="ALDAC">      1.00000000</i>
   <i name="AGGAC">      1.00000000</i>
   <i type="int" name="NKREDX">     1</i>
   <i type="int" name="NKREDY">     1</i>
   <i type="int" name="NKREDZ">     1</i>
   <i type="logical" name="SHIFTRED"> F  </i>
   <i type="logical" name="ODDONLY"> F  </i>
   <i type="logical" name="EVENONLY"> F  </i>
   <i type="int" name="LMAXFOCK">     0</i>
   <i type="int" name="NMAXFOCKAE">     0</i>
   <i type="logical" name="LFOCKAEDFT"> F  </i>
   <i name="HFSCREEN">      0.00000000</i>
   <i name="HFSCREENC">      0.00000000</i>
   <i type="int" name="NBANDSGWLOW">     0</i>
  </separator>
  <separator name="vdW DFT" >
   <i type="logical" name="LUSE_VDW"> F  </i>
   <i name="Zab_VDW">     -0.84910000</i>
   <i name="PARAM1">      0.12340000</i>
   <i name="PARAM2">      1.00000000</i>
   <i name="PARAM3">      0.00000000</i>
  </separator>
  <separator name="model GW" >
   <i type="int" name="MODEL_GW">     0</i>
   <i name="MODEL_EPS0">     26.33661408</i>
   <i name="MODEL_ALPHA">      1.00000000</i>
  </separator>
  <separator name="linear response parameters" >
   <i type="logical" name="LEPSILON"> F  </i>
   <i type="logical" name="LRPA"> F  </i>
   <i type="logical" name="LNABLA"> F  </i>
   <i type="logical" name="LVEL"> F  </i>
   <i type="int" name="KINTER">     0</i>
   <i name="CSHIFT">      0.10000000</i>
   <i name="OMEGAMAX">     -1.00000000</i>
   <i name="DEG_THRESHOLD">      0.00200000</i>
   <i name="RTIME">     -0.10000000</i>
   <i name="WPLASMAI">      0.00000000</i>
   <v name="DFIELD">      0.00000000      0.00000000      0.00000000</v>
   <v name="WPLASMA">      0.00000000      0.00000000      0.00000000      0.00000000      0.00000000      0.00000000      0.00000000      0.00000000      0.00000000</v>
  </separator>
  <separator name="orbital magnetization" >
   <i type="logical" name="NUCIND"> F  </i>
   <v name="MAGPOS">      0.00000000      0.00000000      0.00000000</v>
   <i type="logical" name="LNICSALL"> T  </i>
   <i type="logical" name="ORBITALMAG"> F  </i>
   <i type="logical" name="LMAGBLOCH"> F  </i>
   <i type="logical" name="LCHIMAG"> F  </i>
   <i type="logical" name="LGAUGE"> T  </i>
   <i type="int" name="MAGATOM">     0</i>
   <v name="MAGDIPOL">      0.00000000      0.00000000      0.00000000</v>
   <v name="AVECCONST">      0.00000000      0.00000000      0.00000000</v>
  </separator>
  <separator name="response functions" >
   <i type="logical" name="LADDER"> F  </i>
   <i type="logical" name="LRPAFORCE"> F  </i>
   <i type="logical" name="LFXC"> F  </i>
   <i type="logical" name="LHARTREE"> T  </i>
   <i type="int" name="IBSE">     0</i>
   <v type="int" name="KPOINT">    -1     0     0     0</v>
   <i type="logical" name="LTCTE"> F  </i>
   <i type="logical" name="LTETE"> F  </i>
   <i type="logical" name="LTRIPLET"> F  </i>
   <i type="logical" name="LFXCEPS"> F  </i>
   <i type="logical" name="LFXHEG"> F  </i>
   <i type="int" name="NATURALO">     2</i>
   <i type="logical" name="L2ORDER"> F  </i>
   <i type="logical" name="LMP2LT"> F  </i>
   <i type="logical" name="LUSEW"> F  </i>
   <i name="ENCUTGW">     -2.00000000</i>
   <i name="ENCUTGWSOFT">     -2.00000000</i>
   <i name="ENCUTLF">     -1.00000000</i>
   <i type="int" name="LMAXMP2">    -1</i>
   <i name="SCISSOR">      0.00000000</i>
   <i type="int" name="NOMEGA">     0</i>
   <i type="int" name="NOMEGAR">     0</i>
   <i type="int" name="NBANDSGW">    -1</i>
   <i type="int" name="NBANDSO">    -1</i>
   <i type="int" name="NBANDSV">    -1</i>
   <i type="int" name="NELM">     1</i>
   <i type="int" name="NELMHF">     1</i>
   <i type="int" name="DIM">     3</i>
   <i type="int" name="ANTIRES">     0</i>
   <i name="OMEGAMAX">    -30.00000000</i>
   <i name="OMEGAMIN">    -30.00000000</i>
   <i name="OMEGATL">   -200.00000000</i>
   <i type="int" name="OMEGAGRID">   140</i>
   <i name="CSHIFT">     -0.10000000</i>
   <i type="logical" name="SELFENERGY"> F  </i>
   <i type="logical" name="LSPECTRAL"> F  </i>
   <i type="logical" name="LSPECTRALGW"> F  </i>
   <i type="logical" name="LSINGLES"> F  </i>
   <i type="logical" name="LFERMIGW"> F  </i>
   <i type="logical" name="ODDONLYGW"> F  </i>
   <i type="logical" name="EVENONLYGW"> F  </i>
   <i type="int" name="NKREDLFX">     1</i>
   <i type="int" name="NKREDLFY">     1</i>
   <i type="int" name="NKREDLFZ">     1</i>
   <i type="int" name="MAXMEM">  2800</i>
   <i type="int" name="TELESCOPE">     0</i>
   <i type="int" name="TAUPAR">     1</i>
   <i type="int" name="OMEGAPAR">    -1</i>
   <i name="LAMBDA">      1.00000000</i>
  </separator>
  <separator name="External order field" >
   <i name="OFIELD_KAPPA">      0.00000000</i>
   <v name="OFIELD_K">      0.00000000      0.00000000      0.00000000</v>
   <i name="OFIELD_Q6_NEAR">      0.00000000</i>
   <i name="OFIELD_Q6_FAR">      0.00000000</i>
   <i name="OFIELD_A">      0.00000000</i>
  </separator>
 </parameters>
 <atominfo>
  <atoms>       3 </atoms>
  <types>       2 </types>
  <array name="atoms" >
   <dimension dim="1">ion</dimension>
   <field type="string">element</field>
   <field type="int">atomtype</field>
   <set>
    <rc><c>Mo</c><c>   1</c></rc>
    <rc><c>S </c><c>   2</c></rc>
    <rc><c>S </c><c>   2</c></rc>
   </set>
  </array>
  <array name="atomtypes" >
   <dimension dim="1">type</dimension>
   <field type="int">atomspertype</field>
   <field type="string">element</field>
   <field>mass</field>
   <field>valence</field>
   <field type="string">pseudopotential</field>
   <set>
    <rc><c>   1</c><c>Mo</c><c>     95.94000000</c><c>     14.00000000</c><c>  PAW_PBE Mo_sv 02Feb2006               </c></rc>
    <rc><c>   2</c><c>S </c><c>     32.06600000</c><c>      6.00000000</c><c>  PAW_PBE S 06Sep2000                   </c></rc>
   </set>
  </array>
 </atominfo>
 <structure name="initialpos" >
  <crystal>
   <varray name="basis" >
    <v>       3.18386047       0.00000000       0.00000000 </v>
    <v>      -1.59193023       2.75730405       0.00000000 </v>
    <v>       0.00000000       0.00000000      15.00000000 </v>
   </varray>
   <i name="volume">    131.68307038 </i>
   <varray name="rec_basis" >
    <v>       0.31408412       0.18133655       0.00000000 </v>
    <v>       0.00000000       0.36267310       0.00000000 </v>
    <v>       0.00000000       0.00000000       0.06666667 </v>
   </varray>
  </crystal>
  <varray name="positions" >
   <v>       0.66666669       0.33333334       0.25000000 </v>
   <v>       0.33333334       0.66666669       0.35415206 </v>
   <v>       0.33333334       0.66666669       0.14584794 </v>
  </varray>
 </structure>
 <calculation>
  <scstep>
   <time name="dav">    0.96    0.96</time>
   <time name="total">    1.13    1.54</time>
   <energy>
    <i name="alphaZ">     35.92459719 </i>
    <i name="ewald">   2754.59020459 </i>
    <i name="hartreedc">  -4899.40591179 </i>
    <i name="XCdc">     90.79702472 </i>
    <i name="pawpsdc">   2923.63129473 </i>
    <i name="pawaedc">  -2902.60588515 </i>
    <i name="eentropy">     -0.00000000 </i>
    <i name="bandstr">   -440.70043231 </i>
    <i name="atom">   2415.92241936 </i>
    <i name="e_fr_energy">    -21.84668866 </i>
    <i name="e_wo_entrp">    -21.84668866 </i>
    <i name="e_0_energy">    -21.84668866 </i>
   </energy>
  </scstep>
  <scstep>
   <time name="dav">    0.93    0.93</time>
   <time name="total">    1.00    1.00</time>
   <energy>
    <i name="alphaZ">     35.92459719 </i>
    <i name="ewald">   2754.59020459 </i>
    <i name="hartreedc">  -4899.40669959 </i>
    <i name="XCdc">     90.79702845 </i>
    <i name="pawpsdc">   2923.63487297 </i>
    <i name="pawaedc">  -2902.60943774 </i>
    <i name="eentropy">     -0.00000000 </i>
    <i name="bandstr">   -440.69967388 </i>
    <i name="atom">   2415.92241936 </i>
    <i name="e_fr_energy">    -21.84668866 </i>
    <i name="e_wo_entrp">    -21.84668866 </i>
    <i name="e_0_energy">    -21.84668866 </i>
   </energy>
  </scstep>
  <structure>
   <crystal>
    <varray name="basis" >
     <v>       3.18386047       0.00000000       0.00000000 </v>
     <v>      -1.59193023       2.75730405       0.00000000 </v>
     <v>       0.00000000       0.00000000      15.00000000 </v>
    </varray>
    <i name="volume">    131.68307038 </i>
    <varray name="rec_basis" >
     <v>       0.31408412       0.18133655       0.00000000 </v>
     <v>       0.00000000       0.36267310       0.00000000 </v>
     <v>       0.00000000       0.00000000       0.06666667 </v>
    </varray>
   </crystal>
   <varray name="positions" >
    <v>       0.66666669       0.33333334       0.25000000 </v>
    <v>       0.33333334       0.66666669       0.35415206 </v>
    <v>       0.33333334       0.66666669       0.14584794 </v>
   </varray>
  </structure>
  <varray name="forces" >
   <v>       0.00000000      -0.00000000      -0.00000000 </v>
   <v>      -0.00000000       0.00000000       0.00002260 </v>
   <v>      -0.00000000       0.00000000      -0.00002260 </v>
  </varray>
  <varray name="stress" >
   <v>      -0.00586168       0.00000000       0.00000000 </v>
   <v>       0.00000000      -0.00586168       0.00000000 </v>
   <v>       0.00000000       0.00000000      -0.28037744 </v>
  </varray>
  <energy>
   <i name="e_fr_energy">    -21.84668866 </i>
   <i name="e_wo_entrp">    -21.84668866 </i>
   <i name="e_0_energy">     -0.00000000 </i>
  </energy>
  <time name="totalsc">    5.14    7.38</time>
 </calculation>
 <calculation>
  <scstep>
   <time name="dav">    0.87    0.87</time>
   <time name="total">    1.03    1.70</time>
   <energy>
    <i name="alphaZ">     35.92459719 </i>
    <i name="ewald">   2754.58837668 </i>
    <i name="hartreedc">  -4899.40467955 </i>
    <i name="XCdc">     90.79701551 </i>
    <i name="pawpsdc">   2923.63431297 </i>
    <i name="pawaedc">  -2902.60889920 </i>
    <i name="eentropy">     -0.00000000 </i>
    <i name="bandstr">   -440.69983162 </i>
    <i name="atom">   2415.92241936 </i>
    <i name="e_fr_energy">    -21.84668866 </i>
    <i name="e_wo_entrp">    -21.84668866 </i>
    <i name="e_0_energy">    -21.84668866 </i>
   </energy>
  </scstep>
  <scstep>
   <time name="dav">    0.99    0.99</time>
   <time name="total">    1.05    1.05</time>
   <energy>
    <i name="alphaZ">     35.92459719 </i>
    <i name="ewald">   2754.58837668 </i>
    <i name="hartreedc">  -4899.40466609 </i>
    <i name="XCdc">     90.79701324 </i>
    <i name="pawpsdc">   2923.63288227 </i>
    <i name="pawaedc">  -2902.60747580 </i>
    <i name="eentropy">     -0.00000000 </i>
    <i name="bandstr">   -440.69983551 </i>
    <i name="atom">   2415.92241936 </i>
    <i name="e_fr_energy">    -21.84668866 </i>
    <i name="e_wo_entrp">    -21.84668866 </i>
    <i name="e_0_energy">    -21.84668866 </i>
   </energy>
  </scstep>
  <structure>
   <crystal>
    <varray name="basis" >
     <v>       3.18386047       0.00000000       0.00000000 </v>
     <v>      -1.59193023       2.75730405       0.00000000 </v>
     <v>       0.00000000       0.00000000      15.00000000 </v>
    </varray>
    <i name="volume">    131.68307038 </i>
    <varray name="rec_basis" >
     <v>       0.31408412       0.18133655       0.00000000 </v>
     <v>       0.00000000       0.36267310       0.00000000 </v>
     <v>       0.00000000       0.00000000       0.06666667 </v>
    </varray>
   </crystal>
   <varray name="positions" >
    <v>       0.66666669       0.33333334       0.25000000 </v>
    <v>       0.33333334       0.66666669       0.35415213 </v>
    <v>       0.33333334       0.66666669       0.14584787 </v>
   </varray>
  </structure>
  <varray name="forces" >
   <v>       0.00000000       0.00000000      -0.00000000 </v>
   <v>      -0.00000000      -0.00000000      -0.00000840 </v>
   <v>       0.00000000      -0.00000000       0.00000840 </v>
  </varray>
  <varray name="stress" >
   <v>      -0.00323156       0.00000000       0.00000000 </v>
   <v>       0.00000000      -0.00323156      -0.00000000 </v>
   <v>       0.00000000       0.00000000      -0.27580929 </v>
  </varray>
  <energy>
   <i name="e_fr_energy">    -21.84668866 </i>
   <i name="e_wo_entrp">    -21.84668866 </i>
   <i name="e_0_energy">     -0.00000000 </i>
  </energy>
  <time name="totalsc">    4.49   20.25</time>
  <eigenvalues>
   <array>
    <dimension dim="1">band</dimension>
    <dimension dim="2">kpoint</dimension>
    <dimension dim="3">spin</dimension>
    <field>eigene</field>
    <field>occ</field>
    <set>
     <set comment="spin 1">
      <set comment="kpoint 1">
       <r>  -61.6023    1.0000 </r>
       <r>  -35.7395    1.0000 </r>
       <r>  -35.5584    1.0000 </r>
       <r>  -35.5438    1.0000 </r>
       <r>  -14.7283    1.0000 </r>
       <r>  -13.4726    1.0000 </r>
       <r>   -6.2492    1.0000 </r>
       <r>   -3.5123    1.0000 </r>
       <r>   -3.2585    1.0000 </r>
       <r>   -2.9074    1.0000 </r>
       <r>   -2.3693    1.0000 </r>
       <r>   -1.9375    1.0000 </r>
       <r>   -0.7727    1.0000 </r>
       <r>    1.9127    0.0000 </r>
       <r>    2.0567    0.0000 </r>
       <r>    2.1640    0.0000 </r>
       <r>    2.1811    0.0000 </r>
       <r>    4.7020    0.0000 </r>
       <r>    5.1989    0.0000 </r>
       <r>    5.8489    0.0000 </r>
      </set>
      <set comment="kpoint 2">
       <r>  -61.5965    1.0000 </r>
       <r>  -35.7280    1.0000 </r>
       <r>  -35.6166    1.0000 </r>
       <r>  -35.5578    1.0000 </r>
       <r>  -14.4830    1.0000 </r>
       <r>  -13.3718    1.0000 </r>
       <r>   -5.9893    1.0000 </r>
       <r>   -3.9775    1.0000 </r>
       <r>   -3.4898    1.0000 </r>
       <r>   -3.0100    1.0000 </r>
       <r>   -2.7534    1.0000 </r>
       <r>   -1.7530    1.0000 </r>
       <r>   -0.9538    1.0000 </r>
       <r>    1.6345    0.0000 </r>
       <r>    1.7882    0.0000 </r>
       <r>    1.9389    0.0000 </r>
       <r>    2.5481    0.0000 </r>
       <r>    5.0653    0.0000 </r>
       <r>    5.5230    0.0000 </r>
       <r>    6.6774    0.0000 </r>
      </set>
      <set comment="kpoint 3">
       <r>  -61.5877    1.0000 </r>
       <r>  -35.7105    1.0000 </r>
       <r>  -35.7040    1.0000 </r>
       <r>  -35.5790    1.0000 </r>
       <r>  -14.0837    1.0000 </r>
       <r>  -13.2085    1.0000 </r>
       <r>   -5.7177    1.0000 </r>
       <r>   -4.4689    1.0000 </r>
       <r>   -4.1269    1.0000 </r>
       <r>   -3.2049    1.0000 </r>
       <r>   -2.6342    1.0000 </r>
       <r>   -1.9169    1.0000 </r>
       <r>   -1.3488    1.0000 </r>
       <r>    1.4068    0.0000 </r>
       <r>    1.6873    0.0000 </r>
       <r>    2.0094    0.0000 </r>
       <r>    2.9931    0.0000 </r>
       <r>    5.6201    0.0000 </r>
       <r>    6.0649    0.0000 </r>
       <r>    7.2761    0.0000 </r>
      </set>
      <set comment="kpoint 4">
       <r>  -61.5782    1.0000 </r>
       <r>  -35.7964    1.0000 </r>
       <r>  -35.6916    1.0000 </r>
       <r>  -35.6017    1.0000 </r>
       <r>  -13.6073    1.0000 </r>
       <r>  -13.0168    1.0000 </r>
       <r>   -5.8499    1.0000 </r>
       <r>   -4.7588    1.0000 </r>
       <r>   -4.6126    1.0000 </r>
       <r>   -3.5654    1.0000 </r>
       <r>   -2.2706    1.0000 </r>
       <r>   -2.2340    1.0000 </r>
       <r>   -1.6446    1.0000 </r>
       <r>    1.4169    0.0000 </r>
       <r>    1.6235    0.0000 </r>
       <r>    2.4830    0.0000 </r>
       <r>    3.3299    0.0000 </r>
       <r>    6.2994    0.0000 </r>
       <r>    6.7113    0.0000 </r>
       <r>    7.4017    0.0000 </r>
      </set>
      <set comment="kpoint 5">
       <r>  -61.5706    1.0000 </r>
       <r>  -35.8695    1.0000 </r>
       <r>  -35.6764    1.0000 </r>
       <r>  -35.6197    1.0000 </r>
       <r>  -13.1750    1.0000 </r>
       <r>  -12.8478    1.0000 </r>
       <r>   -6.2268    1.0000 </r>
       <r>   -5.2644    1.0000 </r>
       <r>   -4.6780    1.0000 </r>
       <r>   -3.7932    1.0000 </r>
       <r>   -2.4843    1.0000 </r>
       <r>   -2.0202    1.0000 </r>
       <r>   -1.5096    1.0000 </r>
       <r>    1.4696    0.0000 </r>
       <r>    1.8165    0.0000 </r>
       <r>    2.9252    0.0000 </r>
       <r>    3.4878    0.0000 </r>
       <r>    6.2025    0.0000 </r>
       <r>    7.1189    0.0000 </r>
       <r>    7.1325    0.0000 </r>
      </set>
      <set comment="kpoint 6">
       <r>  -61.5670    1.0000 </r>
       <r>  -35.9044    1.0000 </r>
       <r>  -35.6691    1.0000 </r>
       <r>  -35.6284    1.0000 </r>
       <r>  -12.9438    1.0000 </r>
       <r>  -12.7603    1.0000 </r>
       <r>   -6.4508    1.0000 </r>
       <r>   -5.5109    1.0000 </r>
       <r>   -4.7778    1.0000 </r>
       <r>   -3.8898    1.0000 </r>
       <r>   -2.5952    1.0000 </r>
       <r>   -1.8797    1.0000 </r>
       <r>   -1.2973    1.0000 </r>
       <r>    1.5138    0.0000 </r>
       <r>    2.0168    0.0000 </r>
       <r>    3.1628    0.0000 </r>
       <r>    3.4960    0.0000 </r>
       <r>    5.4987    0.0000 </r>
       <r>    7.3095    0.0000 </r>
       <r>    7.5618    0.0000 </r>
      </set>
      <set comment="kpoint 7">
       <r>  -61.5682    1.0000 </r>
       <r>  -35.8925    1.0000 </r>
       <r>  -35.6716    1.0000 </r>
       <r>  -35.6255    1.0000 </r>
       <r>  -13.0247    1.0000 </r>
       <r>  -12.7907    1.0000 </r>
       <r>   -6.3718    1.0000 </r>
       <r>   -5.4266    1.0000 </r>
       <r>   -4.7380    1.0000 </r>
       <r>   -3.8577    1.0000 </r>
       <r>   -2.5582    1.0000 </r>
       <r>   -1.9291    1.0000 </r>
       <r>   -1.3820    1.0000 </r>
       <r>    1.4977    0.0000 </r>
       <r>    1.9364    0.0000 </r>
       <r>    3.0769    0.0000 </r>
       <r>    3.5024    0.0000 </r>
       <r>    5.7613    0.0000 </r>
       <r>    7.2371    0.0000 </r>
       <r>    7.3836    0.0000 </r>
      </set>
      <set comment="kpoint 8">
       <r>  -61.5741    1.0000 </r>
       <r>  -35.8367    1.0000 </r>
       <r>  -35.6832    1.0000 </r>
       <r>  -35.6116    1.0000 </r>
       <r>  -13.3762    1.0000 </r>
       <r>  -12.9257    1.0000 </r>
       <r>   -6.0400    1.0000 </r>
       <r>   -5.0365    1.0000 </r>
       <r>   -4.6300    1.0000 </r>
       <r>   -3.6960    1.0000 </r>
       <r>   -2.3747    1.0000 </r>
       <r>   -2.1356    1.0000 </r>
       <r>   -1.6195    1.0000 </r>
       <r>    1.4401    0.0000 </r>
       <r>    1.7003    0.0000 </r>
       <r>    2.7220    0.0000 </r>
       <r>    3.4325    0.0000 </r>
       <r>    6.5405    0.0000 </r>
       <r>    6.9732    0.0000 </r>
       <r>    7.0028    0.0000 </r>
      </set>
      <set comment="kpoint 9">
       <r>  -61.5829    1.0000 </r>
       <r>  -35.7512    1.0000 </r>
       <r>  -35.7008    1.0000 </r>
       <r>  -35.5906    1.0000 </r>
       <r>  -13.8487    1.0000 </r>
       <r>  -13.1134    1.0000 </r>
       <r>   -5.7199    1.0000 </r>
       <r>   -4.5863    1.0000 </r>
       <r>   -4.4497    1.0000 </r>
       <r>   -3.4011    1.0000 </r>
       <r>   -2.4396    1.0000 </r>
       <r>   -2.0740    1.0000 </r>
       <r>   -1.5433    1.0000 </r>
       <r>    1.3983    0.0000 </r>
       <r>    1.6191    0.0000 </r>
       <r>    2.2338    0.0000 </r>
       <r>    3.1814    0.0000 </r>
       <r>    5.9536    0.0000 </r>
       <r>    6.3890    0.0000 </r>
       <r>    7.4771    0.0000 </r>
      </set>
      <set comment="kpoint 10">
       <r>  -61.5924    1.0000 </r>
       <r>  -35.7197    1.0000 </r>
       <r>  -35.6581    1.0000 </r>
       <r>  -35.5678    1.0000 </r>
       <r>  -14.2987    1.0000 </r>
       <r>  -13.2963    1.0000 </r>
       <r>   -5.8312    1.0000 </r>
       <r>   -4.2470    1.0000 </r>
       <r>   -3.8043    1.0000 </r>
       <r>   -2.9838    1.0000 </r>
       <r>   -2.8311    1.0000 </r>
       <r>   -1.7972    1.0000 </r>
       <r>   -1.1327    1.0000 </r>
       <r>    1.4804    0.0000 </r>
       <r>    1.8022    0.0000 </r>
       <r>    1.8503    0.0000 </r>
       <r>    2.7762    0.0000 </r>
       <r>    5.3210    0.0000 </r>
       <r>    5.7708    0.0000 </r>
       <r>    7.0185    0.0000 </r>
      </set>
      <set comment="kpoint 11">
       <r>  -61.5999    1.0000 </r>
       <r>  -35.7348    1.0000 </r>
       <r>  -35.5826    1.0000 </r>
       <r>  -35.5496    1.0000 </r>
       <r>  -14.6282    1.0000 </r>
       <r>  -13.4315    1.0000 </r>
       <r>   -6.1382    1.0000 </r>
       <r>   -3.7175    1.0000 </r>
       <r>   -3.1876    1.0000 </r>
       <r>   -3.1558    1.0000 </r>
       <r>   -2.5382    1.0000 </r>
       <r>   -1.8049    1.0000 </r>
       <r>   -0.8361    1.0000 </r>
       <r>    1.8239    0.0000 </r>
       <r>    1.8461    0.0000 </r>
       <r>    2.0733    0.0000 </r>
       <r>    2.3338    0.0000 </r>
       <r>    4.8574    0.0000 </r>
       <r>    5.3305    0.0000 </r>
       <r>    6.2392    0.0000 </r>
      </set>
      <set comment="kpoint 12">
       <r>  -61.6036    1.0000 </r>
       <r>  -35.7420    1.0000 </r>
       <r>  -35.5458    1.0000 </r>
       <r>  -35.5408    1.0000 </r>
       <r>  -14.7794    1.0000 </r>
       <r>  -13.4936    1.0000 </r>
       <r>   -6.3077    1.0000 </r>
       <r>   -3.3985    1.0000 </r>
       <r>   -3.3115    1.0000 </r>
       <r>   -2.6935    1.0000 </r>
       <r>   -2.2791    1.0000 </r>
       <r>   -2.0819    1.0000 </r>
       <r>   -0.7467    1.0000 </r>
       <r>    1.9824    0.0000 </r>
       <r>    2.0707    0.0000 </r>
       <r>    2.1921    0.0000 </r>
       <r>    2.2405    0.0000 </r>
       <r>    4.6136    0.0000 </r>
       <r>    5.1321    0.0000 </r>
       <r>    5.6286    0.0000 </r>
      </set>
      <set comment="kpoint 13">
       <r>  -61.5895    1.0000 </r>
       <r>  -35.7140    1.0000 </r>
       <r>  -35.6819    1.0000 </r>
       <r>  -35.5796    1.0000 </r>
       <r>  -14.1667    1.0000 </r>
       <r>  -13.2418    1.0000 </r>
       <r>   -5.7290    1.0000 </r>
       <r>   -4.3831    1.0000 </r>
       <r>   -3.8785    1.0000 </r>
       <r>   -3.3940    1.0000 </r>
       <r>   -2.7642    1.0000 </r>
       <r>   -1.6642    1.0000 </r>
       <r>   -1.2499    1.0000 </r>
       <r>    1.3605    0.0000 </r>
       <r>    1.7459    0.0000 </r>
       <r>    1.7599    0.0000 </r>
       <r>    3.0141    0.0000 </r>
       <r>    5.5203    0.0000 </r>
       <r>    5.9565    0.0000 </r>
       <r>    7.2995    0.0000 </r>
      </set>
      <set comment="kpoint 14">
       <r>  -61.5806    1.0000 </r>
       <r>  -35.7607    1.0000 </r>
       <r>  -35.6964    1.0000 </r>
       <r>  -35.6087    1.0000 </r>
       <r>  -13.7361    1.0000 </r>
       <r>  -13.0651    1.0000 </r>
       <r>   -5.6718    1.0000 </r>
       <r>   -4.5622    1.0000 </r>
       <r>   -4.4669    1.0000 </r>
       <r>   -3.8258    1.0000 </r>
       <r>   -2.6380    1.0000 </r>
       <r>   -1.8511    1.0000 </r>
       <r>   -1.5328    1.0000 </r>
       <r>    1.2329    0.0000 </r>
       <r>    1.7269    0.0000 </r>
       <r>    2.0237    0.0000 </r>
       <r>    3.4149    0.0000 </r>
       <r>    6.1654    0.0000 </r>
       <r>    6.5766    0.0000 </r>
       <r>    7.8590    0.0000 </r>
      </set>
      <set comment="kpoint 15">
       <r>  -61.5724    1.0000 </r>
       <r>  -35.8326    1.0000 </r>
       <r>  -35.6799    1.0000 </r>
       <r>  -35.6363    1.0000 </r>
       <r>  -13.2869    1.0000 </r>
       <r>  -12.8829    1.0000 </r>
       <r>   -5.9430    1.0000 </r>
       <r>   -5.1325    1.0000 </r>
       <r>   -4.5359    1.0000 </r>
       <r>   -3.9276    1.0000 </r>
       <r>   -2.6961    1.0000 </r>
       <r>   -2.2060    1.0000 </r>
       <r>   -1.4710    1.0000 </r>
       <r>    1.3948    0.0000 </r>
       <r>    1.8036    0.0000 </r>
       <r>    2.4660    0.0000 </r>
       <r>    3.5965    0.0000 </r>
       <r>    6.7315    0.0000 </r>
       <r>    7.2530    0.0000 </r>
       <r>    7.2866    0.0000 </r>
      </set>
      <set comment="kpoint 16">
       <r>  -61.5670    1.0000 </r>
       <r>  -35.8794    1.0000 </r>
       <r>  -35.6691    1.0000 </r>
       <r>  -35.6545    1.0000 </r>
       <r>  -12.9558    1.0000 </r>
       <r>  -12.7510    1.0000 </r>
       <r>   -6.1956    1.0000 </r>
       <r>   -5.5713    1.0000 </r>
       <r>   -4.6622    1.0000 </r>
       <r>   -3.9080    1.0000 </r>
       <r>   -2.6531    1.0000 </r>
       <r>   -2.5082    1.0000 </r>
       <r>   -1.2187    1.0000 </r>
       <r>    1.5074    0.0000 </r>
       <r>    2.0322    0.0000 </r>
       <r>    2.8691    0.0000 </r>
       <r>    3.5420    0.0000 </r>
       <r>    5.9640    0.0000 </r>
       <r>    7.8261    0.0000 </r>
       <r>    7.8465    0.0000 </r>
      </set>
      <set comment="kpoint 17">
       <r>  -61.5658    1.0000 </r>
       <r>  -35.8894    1.0000 </r>
       <r>  -35.6668    1.0000 </r>
       <r>  -35.6584    1.0000 </r>
       <r>  -12.8801    1.0000 </r>
       <r>  -12.7213    1.0000 </r>
       <r>   -6.2540    1.0000 </r>
       <r>   -5.6649    1.0000 </r>
       <r>   -4.7125    1.0000 </r>
       <r>   -3.8936    1.0000 </r>
       <r>   -2.6308    1.0000 </r>
       <r>   -2.5815    1.0000 </r>
       <r>   -1.1306    1.0000 </r>
       <r>    1.4906    0.0000 </r>
       <r>    2.1446    0.0000 </r>
       <r>    2.9915    0.0000 </r>
       <r>    3.4830    0.0000 </r>
       <r>    5.7107    0.0000 </r>
       <r>    8.0997    0.0000 </r>
       <r>    8.1109    0.0000 </r>
      </set>
      <set comment="kpoint 18">
       <r>  -61.5692    1.0000 </r>
       <r>  -35.8600    1.0000 </r>
       <r>  -35.6736    1.0000 </r>
       <r>  -35.6469    1.0000 </r>
       <r>  -13.0970    1.0000 </r>
       <r>  -12.8069    1.0000 </r>
       <r>   -6.0868    1.0000 </r>
       <r>   -5.3900    1.0000 </r>
       <r>   -4.5880    1.0000 </r>
       <r>   -3.9248    1.0000 </r>
       <r>   -2.6846    1.0000 </r>
       <r>   -2.3759    1.0000 </r>
       <r>   -1.3496    1.0000 </r>
       <r>    1.4894    0.0000 </r>
       <r>    1.8901    0.0000 </r>
       <r>    2.6832    0.0000 </r>
       <r>    3.5930    0.0000 </r>
       <r>    6.3865    0.0000 </r>
       <r>    7.4814    0.0000 </r>
       <r>    7.5582    0.0000 </r>
      </set>
      <set comment="kpoint 19">
       <r>  -61.5763    1.0000 </r>
       <r>  -35.7987    1.0000 </r>
       <r>  -35.6877    1.0000 </r>
       <r>  -35.6232    1.0000 </r>
       <r>  -13.5061    1.0000 </r>
       <r>  -12.9715    1.0000 </r>
       <r>   -5.7898    1.0000 </r>
       <r>   -4.8159    1.0000 </r>
       <r>   -4.5379    1.0000 </r>
       <r>   -3.9006    1.0000 </r>
       <r>   -2.6682    1.0000 </r>
       <r>   -2.0222    1.0000 </r>
       <r>   -1.5440    1.0000 </r>
       <r>    1.2848    0.0000 </r>
       <r>    1.7587    0.0000 </r>
       <r>    2.2379    0.0000 </r>
       <r>    3.5375    0.0000 </r>
       <r>    6.5205    0.0000 </r>
       <r>    6.9201    0.0000 </r>
       <r>    7.6527    0.0000 </r>
      </set>
      <set comment="kpoint 20">
       <r>  -61.5851    1.0000 </r>
       <r>  -35.7209    1.0000 </r>
       <r>  -35.7053    1.0000 </r>
       <r>  -35.5937    1.0000 </r>
       <r>  -13.9607    1.0000 </r>
       <r>  -13.1572    1.0000 </r>
       <r>   -5.6478    1.0000 </r>
       <r>   -4.5238    1.0000 </r>
       <r>   -4.1342    1.0000 </r>
       <r>   -3.6695    1.0000 </r>
       <r>   -2.6682    1.0000 </r>
       <r>   -1.7228    1.0000 </r>
       <r>   -1.4209    1.0000 </r>
       <r>    1.2623    0.0000 </r>
       <r>    1.7161    0.0000 </r>
       <r>    1.8547    0.0000 </r>
       <r>    3.2359    0.0000 </r>
       <r>    5.8237    0.0000 </r>
       <r>    6.2489    0.0000 </r>
       <r>    7.5868    0.0000 </r>
      </set>
      <set comment="kpoint 21">
       <r>  -61.5933    1.0000 </r>
       <r>  -35.7217    1.0000 </r>
       <r>  -35.6464    1.0000 </r>
       <r>  -35.5672    1.0000 </r>
       <r>  -14.3435    1.0000 </r>
       <r>  -13.3145    1.0000 </r>
       <r>   -5.8603    1.0000 </r>
       <r>   -4.1824    1.0000 </r>
       <r>   -3.6785    1.0000 </r>
       <r>   -3.0552    1.0000 </r>
       <r>   -2.8894    1.0000 </r>
       <r>   -1.6836    1.0000 </r>
       <r>   -1.0821    1.0000 </r>
       <r>    1.4946    0.0000 </r>
       <r>    1.7472    0.0000 </r>
       <r>    1.8273    0.0000 </r>
       <r>    2.7724    0.0000 </r>
       <r>    5.2652    0.0000 </r>
       <r>    5.7118    0.0000 </r>
       <r>    6.9977    0.0000 </r>
      </set>
      <set comment="kpoint 22">
       <r>  -61.5988    1.0000 </r>
       <r>  -35.7325    1.0000 </r>
       <r>  -35.5947    1.0000 </r>
       <r>  -35.5519    1.0000 </r>
       <r>  -14.5791    1.0000 </r>
       <r>  -13.4113    1.0000 </r>
       <r>   -6.0866    1.0000 </r>
       <r>   -3.8115    1.0000 </r>
       <r>   -3.3124    1.0000 </r>
       <r>   -3.1037    1.0000 </r>
       <r>   -2.5747    1.0000 </r>
       <r>   -1.8057    1.0000 </r>
       <r>   -0.8735    1.0000 </r>
       <r>    1.7615    0.0000 </r>
       <r>    1.8242    0.0000 </r>
       <r>    2.0313    0.0000 </r>
       <r>    2.3932    0.0000 </r>
       <r>    4.9275    0.0000 </r>
       <r>    5.3950    0.0000 </r>
       <r>    6.3978    0.0000 </r>
      </set>
      <set comment="kpoint 23">
       <r>  -61.5731    1.0000 </r>
       <r>  -35.8116    1.0000 </r>
       <r>  -35.6812    1.0000 </r>
       <r>  -35.6499    1.0000 </r>
       <r>  -13.3280    1.0000 </r>
       <r>  -12.8944    1.0000 </r>
       <r>   -5.7857    1.0000 </r>
       <r>   -5.0598    1.0000 </r>
       <r>   -4.4227    1.0000 </r>
       <r>   -4.0451    1.0000 </r>
       <r>   -3.0650    1.0000 </r>
       <r>   -2.0279    1.0000 </r>
       <r>   -1.4819    1.0000 </r>
       <r>    1.3380    0.0000 </r>
       <r>    1.8243    0.0000 </r>
       <r>    2.1953    0.0000 </r>
       <r>    3.6949    0.0000 </r>
       <r>    6.8313    0.0000 </r>
       <r>    7.2488    0.0000 </r>
       <r>    7.6346    0.0000 </r>
      </set>
      <set comment="kpoint 24">
       <r>  -61.5670    1.0000 </r>
       <r>  -35.8465    1.0000 </r>
       <r>  -35.6884    1.0000 </r>
       <r>  -35.6691    1.0000 </r>
       <r>  -12.9676    1.0000 </r>
       <r>  -12.7417    1.0000 </r>
       <r>   -5.8831    1.0000 </r>
       <r>   -5.6262    1.0000 </r>
       <r>   -4.4246    1.0000 </r>
       <r>   -3.9464    1.0000 </r>
       <r>   -3.4589    1.0000 </r>
       <r>   -2.3885    1.0000 </r>
       <r>   -1.2449    1.0000 </r>
       <r>    1.4506    0.0000 </r>
       <r>    2.0758    0.0000 </r>
       <r>    2.4343    0.0000 </r>
       <r>    3.8138    0.0000 </r>
       <r>    6.6278    0.0000 </r>
       <r>    7.7172    0.0000 </r>
       <r>    7.9589    0.0000 </r>
      </set>
      <set comment="kpoint 25">
       <r>  -61.5640    1.0000 </r>
       <r>  -35.8616    1.0000 </r>
       <r>  -35.7087    1.0000 </r>
       <r>  -35.6632    1.0000 </r>
       <r>  -12.7802    1.0000 </r>
       <r>  -12.6617    1.0000 </r>
       <r>   -5.9025    1.0000 </r>
       <r>   -5.8927    1.0000 </r>
       <r>   -4.6220    1.0000 </r>
       <r>   -3.8033    1.0000 </r>
       <r>   -3.5399    1.0000 </r>
       <r>   -2.6620    1.0000 </r>
       <r>   -0.9873    1.0000 </r>
       <r>    1.2739    0.0000 </r>
       <r>    2.4510    0.0000 </r>
       <r>    2.5634    0.0000 </r>
       <r>    3.8444    0.0000 </r>
       <r>    6.0433    0.0000 </r>
       <r>    7.9464    0.0000 </r>
       <r>    8.5324    0.0000 </r>
      </set>
      <set comment="kpoint 26">
       <r>  -61.5650    1.0000 </r>
       <r>  -35.8566    1.0000 </r>
       <r>  -35.7016    1.0000 </r>
       <r>  -35.6652    1.0000 </r>
       <r>  -12.8452    1.0000 </r>
       <r>  -12.6895    1.0000 </r>
       <r>   -5.8946    1.0000 </r>
       <r>   -5.8083    1.0000 </r>
       <r>   -4.5348    1.0000 </r>
       <r>   -3.8631    1.0000 </r>
       <r>   -3.5229    1.0000 </r>
       <r>   -2.5574    1.0000 </r>
       <r>   -1.0929    1.0000 </r>
       <r>    1.3574    0.0000 </r>
       <r>    2.2998    0.0000 </r>
       <r>    2.5190    0.0000 </r>
       <r>    3.8359    0.0000 </r>
       <r>    6.2678    0.0000 </r>
       <r>    7.8797    0.0000 </r>
       <r>    8.2880    0.0000 </r>
      </set>
      <set comment="kpoint 27">
       <r>  -61.5697    1.0000 </r>
       <r>  -35.8315    1.0000 </r>
       <r>  -35.6746    1.0000 </r>
       <r>  -35.6705    1.0000 </r>
       <r>  -13.1339    1.0000 </r>
       <r>  -12.8123    1.0000 </r>
       <r>   -5.8462    1.0000 </r>
       <r>   -5.3695    1.0000 </r>
       <r>   -4.3792    1.0000 </r>
       <r>   -4.0165    1.0000 </r>
       <r>   -3.3032    1.0000 </r>
       <r>   -2.1997    1.0000 </r>
       <r>   -1.3840    1.0000 </r>
       <r>    1.4518    0.0000 </r>
       <r>    1.8975    0.0000 </r>
       <r>    2.3199    0.0000 </r>
       <r>    3.7699    0.0000 </r>
       <r>    6.9382    0.0000 </r>
       <r>    7.5202    0.0000 </r>
       <r>    7.6076    0.0000 </r>
      </set>
      <set comment="kpoint 28">
       <r>  -61.5768    1.0000 </r>
       <r>  -35.7876    1.0000 </r>
       <r>  -35.6887    1.0000 </r>
       <r>  -35.6286    1.0000 </r>
       <r>  -13.5337    1.0000 </r>
       <r>  -12.9807    1.0000 </r>
       <r>   -5.7179    1.0000 </r>
       <r>   -4.7365    1.0000 </r>
       <r>   -4.5052    1.0000 </r>
       <r>   -3.9986    1.0000 </r>
       <r>   -2.8163    1.0000 </r>
       <r>   -1.9043    1.0000 </r>
       <r>   -1.5339    1.0000 </r>
       <r>    1.2391    0.0000 </r>
       <r>    1.7787    0.0000 </r>
       <r>    2.0882    0.0000 </r>
       <r>    3.5789    0.0000 </r>
       <r>    6.5014    0.0000 </r>
       <r>    6.8989    0.0000 </r>
       <r>    7.8944    0.0000 </r>
      </set>
      <set comment="kpoint 29">
       <r>  -61.5844    1.0000 </r>
       <r>  -35.7322    1.0000 </r>
       <r>  -35.7038    1.0000 </r>
       <r>  -35.5917    1.0000 </r>
       <r>  -13.9228    1.0000 </r>
       <r>  -13.1424    1.0000 </r>
       <r>   -5.6729    1.0000 </r>
       <r>   -4.5501    1.0000 </r>
       <r>   -4.2813    1.0000 </r>
       <r>   -3.5253    1.0000 </r>
       <r>   -2.5824    1.0000 </r>
       <r>   -1.8683    1.0000 </r>
       <r>   -1.4651    1.0000 </r>
       <r>    1.3112    0.0000 </r>
       <r>    1.6851    0.0000 </r>
       <r>    2.0076    0.0000 </r>
       <r>    3.2087    0.0000 </r>
       <r>    5.8660    0.0000 </r>
       <r>    6.2959    0.0000 </r>
       <r>    7.5402    0.0000 </r>
      </set>
      <set comment="kpoint 30">
       <r>  -61.5904    1.0000 </r>
       <r>  -35.7159    1.0000 </r>
       <r>  -35.6784    1.0000 </r>
       <r>  -35.5712    1.0000 </r>
       <r>  -14.2108    1.0000 </r>
       <r>  -13.2605    1.0000 </r>
       <r>   -5.7789    1.0000 </r>
       <r>   -4.3540    1.0000 </r>
       <r>   -3.9674    1.0000 </r>
       <r>   -3.0000    1.0000 </r>
       <r>   -2.7344    1.0000 </r>
       <r>   -1.9100    1.0000 </r>
       <r>   -1.2272    1.0000 </r>
       <r>    1.4573    0.0000 </r>
       <r>    1.7450    0.0000 </r>
       <r>    1.9654    0.0000 </r>
       <r>    2.8348    0.0000 </r>
       <r>    5.4377    0.0000 </r>
       <r>    5.8889    0.0000 </r>
       <r>    7.1011    0.0000 </r>
      </set>
      <set comment="kpoint 31">
       <r>  -61.5634    1.0000 </r>
       <r>  -35.8365    1.0000 </r>
       <r>  -35.7422    1.0000 </r>
       <r>  -35.6620    1.0000 </r>
       <r>  -12.7452    1.0000 </r>
       <r>  -12.6377    1.0000 </r>
       <r>   -6.0006    1.0000 </r>
       <r>   -5.6145    1.0000 </r>
       <r>   -4.4677    1.0000 </r>
       <r>   -4.1423    1.0000 </r>
       <r>   -3.7379    1.0000 </r>
       <r>   -2.7131    1.0000 </r>
       <r>   -0.9241    1.0000 </r>
       <r>    1.1363    0.0000 </r>
       <r>    2.3757    0.0000 </r>
       <r>    2.5851    0.0000 </r>
       <r>    4.0320    0.0000 </r>
       <r>    6.4754    0.0000 </r>
       <r>    7.2524    0.0000 </r>
       <r>    8.5995    0.0000 </r>
      </set>
      <set comment="kpoint 32">
       <r>  -61.5626    1.0000 </r>
       <r>  -35.8283    1.0000 </r>
       <r>  -35.7597    1.0000 </r>
       <r>  -35.6604    1.0000 </r>
       <r>  -12.6962    1.0000 </r>
       <r>  -12.6141    1.0000 </r>
       <r>   -6.0834    1.0000 </r>
       <r>   -5.4630    1.0000 </r>
       <r>   -4.6493    1.0000 </r>
       <r>   -4.2170    1.0000 </r>
       <r>   -3.6468    1.0000 </r>
       <r>   -2.8297    1.0000 </r>
       <r>   -0.8068    1.0000 </r>
       <r>    1.0043    0.0000 </r>
       <r>    2.3570    0.0000 </r>
       <r>    2.7371    0.0000 </r>
       <r>    4.0903    0.0000 </r>
       <r>    6.4144    0.0000 </r>
       <r>    7.0929    0.0000 </r>
       <r>    8.8015    0.0000 </r>
      </set>
      <set comment="kpoint 33">
       <r>  -61.5649    1.0000 </r>
       <r>  -35.8440    1.0000 </r>
       <r>  -35.7165    1.0000 </r>
       <r>  -35.6649    1.0000 </r>
       <r>  -12.8385    1.0000 </r>
       <r>  -12.6820    1.0000 </r>
       <r>   -5.8427    1.0000 </r>
       <r>   -5.7722    1.0000 </r>
       <r>   -4.3995    1.0000 </r>
       <r>   -3.8569    1.0000 </r>
       <r>   -3.8544    1.0000 </r>
       <r>   -2.5482    1.0000 </r>
       <r>   -1.0898    1.0000 </r>
       <r>    1.3159    0.0000 </r>
       <r>    2.3374    0.0000 </r>
       <r>    2.4055    0.0000 </r>
       <r>    3.9311    0.0000 </r>
       <r>    6.5489    0.0000 </r>
       <r>    7.5436    0.0000 </r>
       <r>    8.2996    0.0000 </r>
      </set>
      <set comment="kpoint 34">
       <r>  -61.5695    1.0000 </r>
       <r>  -35.8428    1.0000 </r>
       <r>  -35.6742    1.0000 </r>
       <r>  -35.6609    1.0000 </r>
       <r>  -13.1212    1.0000 </r>
       <r>  -12.8107    1.0000 </r>
       <r>   -5.9383    1.0000 </r>
       <r>   -5.3773    1.0000 </r>
       <r>   -4.4772    1.0000 </r>
       <r>   -3.9803    1.0000 </r>
       <r>   -3.0553    1.0000 </r>
       <r>   -2.2677    1.0000 </r>
       <r>   -1.3686    1.0000 </r>
       <r>    1.4678    0.0000 </r>
       <r>    1.8924    0.0000 </r>
       <r>    2.4535    0.0000 </r>
       <r>    3.7023    0.0000 </r>
       <r>    6.7142    0.0000 </r>
       <r>    7.5107    0.0000 </r>
       <r>    7.6000    0.0000 </r>
      </set>
      <set comment="kpoint 35">
       <r>  -61.5754    1.0000 </r>
       <r>  -35.8167    1.0000 </r>
       <r>  -35.6858    1.0000 </r>
       <r>  -35.6161    1.0000 </r>
       <r>  -13.4526    1.0000 </r>
       <r>  -12.9530    1.0000 </r>
       <r>   -5.9087    1.0000 </r>
       <r>   -4.9254    1.0000 </r>
       <r>   -4.5852    1.0000 </r>
       <r>   -3.7756    1.0000 </r>
       <r>   -2.4190    1.0000 </r>
       <r>   -2.2051    1.0000 </r>
       <r>   -1.5706    1.0000 </r>
       <r>    1.3634    0.0000 </r>
       <r>    1.7241    0.0000 </r>
       <r>    2.4801    0.0000 </r>
       <r>    3.4750    0.0000 </r>
       <r>    6.5476    0.0000 </r>
       <r>    6.9515    0.0000 </r>
       <r>    7.2994    0.0000 </r>
      </set>
      <set comment="kpoint 36">
       <r>  -61.5808    1.0000 </r>
       <r>  -35.7737    1.0000 </r>
       <r>  -35.6967    1.0000 </r>
       <r>  -35.5933    1.0000 </r>
       <r>  -13.7417    1.0000 </r>
       <r>  -13.0710    1.0000 </r>
       <r>   -5.7823    1.0000 </r>
       <r>   -4.6118    1.0000 </r>
       <r>   -4.6075    1.0000 </r>
       <r>   -3.4059    1.0000 </r>
       <r>   -2.3001    1.0000 </r>
       <r>   -2.2147    1.0000 </r>
       <r>   -1.6259    1.0000 </r>
       <r>    1.4989    0.0000 </r>
       <r>    1.5298    0.0000 </r>
       <r>    2.4162    0.0000 </r>
       <r>    3.2113    0.0000 </r>
       <r>    6.0954    0.0000 </r>
       <r>    6.5268    0.0000 </r>
       <r>    7.4436    0.0000 </r>
      </set>
      <set comment="kpoint 37">
       <r>  -61.5631    1.0000 </r>
       <r>  -35.8445    1.0000 </r>
       <r>  -35.7374    1.0000 </r>
       <r>  -35.6614    1.0000 </r>
       <r>  -12.7248    1.0000 </r>
       <r>  -12.6307    1.0000 </r>
       <r>   -6.0205    1.0000 </r>
       <r>   -5.6636    1.0000 </r>
       <r>   -4.6192    1.0000 </r>
       <r>   -3.9523    1.0000 </r>
       <r>   -3.7126    1.0000 </r>
       <r>   -2.7607    1.0000 </r>
       <r>   -0.8783    1.0000 </r>
       <r>    1.1115    0.0000 </r>
       <r>    2.4302    0.0000 </r>
       <r>    2.6342    0.0000 </r>
       <r>    3.9997    0.0000 </r>
       <r>    6.2089    0.0000 </r>
       <r>    7.4713    0.0000 </r>
       <r>    8.7064    0.0000 </r>
      </set>
      <set comment="kpoint 38">
       <r>  -61.5654    1.0000 </r>
       <r>  -35.8738    1.0000 </r>
       <r>  -35.6800    1.0000 </r>
       <r>  -35.6659    1.0000 </r>
       <r>  -12.8589    1.0000 </r>
       <r>  -12.7033    1.0000 </r>
       <r>   -6.0771    1.0000 </r>
       <r>   -5.7453    1.0000 </r>
       <r>   -4.6409    1.0000 </r>
       <r>   -3.8781    1.0000 </r>
       <r>   -3.0866    1.0000 </r>
       <r>   -2.5703    1.0000 </r>
       <r>   -1.1033    1.0000 </r>
       <r>    1.4252    0.0000 </r>
       <r>    2.2304    0.0000 </r>
       <r>    2.7271    0.0000 </r>
       <r>    3.6717    0.0000 </r>
       <r>    5.9606    0.0000 </r>
       <r>    8.1797    0.0000 </r>
       <r>    8.2579    0.0000 </r>
      </set>
      <set comment="kpoint 39">
       <r>  -61.5688    1.0000 </r>
       <r>  -35.8778    1.0000 </r>
       <r>  -35.6727    1.0000 </r>
       <r>  -35.6340    1.0000 </r>
       <r>  -13.0638    1.0000 </r>
       <r>  -12.8005    1.0000 </r>
       <r>   -6.2441    1.0000 </r>
       <r>   -5.4057    1.0000 </r>
       <r>   -4.6767    1.0000 </r>
       <r>   -3.8765    1.0000 </r>
       <r>   -2.4839    1.0000 </r>
       <r>   -2.2854    1.0000 </r>
       <r>   -1.3478    1.0000 </r>
       <r>    1.5007    0.0000 </r>
       <r>    1.9035    0.0000 </r>
       <r>    2.9320    0.0000 </r>
       <r>    3.4976    0.0000 </r>
       <r>    6.0484    0.0000 </r>
       <r>    7.4260    0.0000 </r>
       <r>    7.4266    0.0000 </r>
      </set>
      <set comment="kpoint 40">
       <r>  -61.5724    1.0000 </r>
       <r>  -35.8552    1.0000 </r>
       <r>  -35.6800    1.0000 </r>
       <r>  -35.6124    1.0000 </r>
       <r>  -13.2816    1.0000 </r>
       <r>  -12.8902    1.0000 </r>
       <r>   -6.1535    1.0000 </r>
       <r>   -5.1459    1.0000 </r>
       <r>   -4.6624    1.0000 </r>
       <r>   -3.7091    1.0000 </r>
       <r>   -2.4665    1.0000 </r>
       <r>   -1.9331    1.0000 </r>
       <r>   -1.6479    1.0000 </r>
       <r>    1.4646    0.0000 </r>
       <r>    1.7372    0.0000 </r>
       <r>    2.8709    0.0000 </r>
       <r>    3.4498    0.0000 </r>
       <r>    6.4001    0.0000 </r>
       <r>    6.9502    0.0000 </r>
       <r>    7.0028    0.0000 </r>
      </set>
      <set comment="kpoint 41">
       <r>  -61.5664    1.0000 </r>
       <r>  -35.9001    1.0000 </r>
       <r>  -35.6678    1.0000 </r>
       <r>  -35.6405    1.0000 </r>
       <r>  -12.9087    1.0000 </r>
       <r>  -12.7411    1.0000 </r>
       <r>   -6.3851    1.0000 </r>
       <r>   -5.5821    1.0000 </r>
       <r>   -4.7576    1.0000 </r>
       <r>   -3.8998    1.0000 </r>
       <r>   -2.5898    1.0000 </r>
       <r>   -2.2103    1.0000 </r>
       <r>   -1.1902    1.0000 </r>
       <r>    1.5222    0.0000 </r>
       <r>    2.0682    0.0000 </r>
       <r>    3.2177    0.0000 </r>
       <r>    3.3562    0.0000 </r>
       <r>    5.5499    0.0000 </r>
       <r>    7.6768    0.0000 </r>
       <r>    7.8171    0.0000 </r>
      </set>
      <set comment="kpoint 42">
       <r>  -61.5676    1.0000 </r>
       <r>  -35.9017    1.0000 </r>
       <r>  -35.6703    1.0000 </r>
       <r>  -35.6234    1.0000 </r>
       <r>  -12.9835    1.0000 </r>
       <r>  -12.7772    1.0000 </r>
       <r>   -6.4452    1.0000 </r>
       <r>   -5.4594    1.0000 </r>
       <r>   -4.7716    1.0000 </r>
       <r>   -3.8690    1.0000 </r>
       <r>   -2.5904    1.0000 </r>
       <r>   -1.7361    1.0000 </r>
       <r>   -1.4082    1.0000 </r>
       <r>    1.4980    0.0000 </r>
       <r>    1.9770    0.0000 </r>
       <r>    3.1117    0.0000 </r>
       <r>    3.5574    0.0000 </r>
       <r>    5.5699    0.0000 </r>
       <r>    7.1593    0.0000 </r>
       <r>    7.4152    0.0000 </r>
      </set>
     </set>
    </set>
   </array>
  </eigenvalues>
  <separator name="orbital magnetization" >
   <v name="MAGDIPOLOUT">      0.00000000      0.00000000      0.00000000</v>
  </separator>
  <dos>
   <i name="efermi">     -0.52126005 </i>
   <total>
    <array>
     <dimension dim="1">gridpoints</dimension>
     <dimension dim="2">spin</dimension>
     <field>energy</field>
     <field>total</field>
     <field>integrated</field>
     <set>
      <set comment="spin 1">
       <r>   -65.1238     0.0000     0.0000 </r>
       <r>   -64.8657     0.0000     0.0000 </r>
       <r>   -64.6075     0.0000     0.0000 </r>
       <r>   -64.3493     0.0000     0.0000 </r>
       <r>   -64.0912     0.0000     0.0000 </r>
       <r>   -63.8330     0.0000     0.0000 </r>
       <r>   -63.5749     0.0000     0.0000 </r>
       <r>   -63.3167     0.0000     0.0000 </r>
       <r>   -63.0586     0.0000     0.0000 </r>
       <r>   -62.8004     0.0000     0.0000 </r>
       <r>   -62.5423     0.0000     0.0000 </r>
       <r>   -62.2841     0.0000     0.0000 </r>
       <r>   -62.0260     0.0000     0.0000 </r>
       <r>   -61.7678     0.0000     0.0000 </r>
       <r>   -61.5097     7.4706     1.9285 </r>
       <r>   -61.2515     0.2768     2.0000 </r>
       <r>   -60.9934     0.0000     2.0000 </r>
       <r>   -60.7352     0.0000     2.0000 </r>
       <r>   -60.4771     0.0000     2.0000 </r>
       <r>   -60.2189     0.0000     2.0000 </r>
       <r>   -59.9608     0.0000     2.0000 </r>
       <r>   -59.7026     0.0000     2.0000 </r>
       <r>   -59.4445     0.0000     2.0000 </r>
       <r>   -59.1863     0.0000     2.0000 </r>
       <r>   -58.9282     0.0000     2.0000 </r>
       <r>   -58.6700     0.0000     2.0000 </r>
       <r>   -58.4119     0.0000     2.0000 </r>
       <r>   -58.1537     0.0000     2.0000 </r>
       <r>   -57.8955     0.0000     2.0000 </r>
       <r>   -57.6374     0.0000     2.0000 </r>
       <r>   -57.3792     0.0000     2.0000 </r>
       <r>   -57.1211     0.0000     2.0000 </r>
       <r>   -56.8629     0.0000     2.0000 </r>
       <r>   -56.6048     0.0000     2.0000 </r>
       <r>   -56.3466     0.0000     2.0000 </r>
       <r>   -56.0885     0.0000     2.0000 </r>
       <r>   -55.8303     0.0000     2.0000 </r>
       <r>   -55.5722     0.0000     2.0000 </r>
       <r>   -55.3140     0.0000     2.0000 </r>
       <r>   -55.0559     0.0000     2.0000 </r>
       <r>   -54.7977     0.0000     2.0000 </r>
       <r>   -54.5396     0.0000     2.0000 </r>
       <r>   -54.2814     0.0000     2.0000 </r>
       <r>   -54.0233     0.0000     2.0000 </r>
       <r>   -53.7651     0.0000     2.0000 </r>
       <r>   -53.5070     0.0000     2.0000 </r>
       <r>   -53.2488     0.0000     2.0000 </r>
       <r>   -52.9907     0.0000     2.0000 </r>
       <r>   -52.7325     0.0000     2.0000 </r>
       <r>   -52.4744     0.0000     2.0000 </r>
       <r>   -52.2162     0.0000     2.0000 </r>
       <r>   -51.9581     0.0000     2.0000 </r>
       <r>   -51.6999     0.0000     2.0000 </r>
       <r>   -51.4417     0.0000     2.0000 </r>
       <r>   -51.1836     0.0000     2.0000 </r>
       <r>   -50.9254     0.0000     2.0000 </r>
       <r>   -50.6673     0.0000     2.0000 </r>
       <r>   -50.4091     0.0000     2.0000 </r>
       <r>   -50.1510     0.0000     2.0000 </r>
       <r>   -49.8928     0.0000     2.0000 </r>
       <r>   -49.6347     0.0000     2.0000 </r>
       <r>   -49.3765     0.0000     2.0000 </r>
       <r>   -49.1184     0.0000     2.0000 </r>
       <r>   -48.8602     0.0000     2.0000 </r>
       <r>   -48.6021     0.0000     2.0000 </r>
       <r>   -48.3439     0.0000     2.0000 </r>
       <r>   -48.0858     0.0000     2.0000 </r>
       <r>   -47.8276     0.0000     2.0000 </r>
       <r>   -47.5695     0.0000     2.0000 </r>
       <r>   -47.3113     0.0000     2.0000 </r>
       <r>   -47.0532     0.0000     2.0000 </r>
       <r>   -46.7950     0.0000     2.0000 </r>
       <r>   -46.5369     0.0000     2.0000 </r>
       <r>   -46.2787     0.0000     2.0000 </r>
       <r>   -46.0206     0.0000     2.0000 </r>
       <r>   -45.7624     0.0000     2.0000 </r>
       <r>   -45.5043     0.0000     2.0000 </r>
       <r>   -45.2461     0.0000     2.0000 </r>
       <r>   -44.9879     0.0000     2.0000 </r>
       <r>   -44.7298     0.0000     2.0000 </r>
       <r>   -44.4716     0.0000     2.0000 </r>
       <r>   -44.2135     0.0000     2.0000 </r>
       <r>   -43.9553     0.0000     2.0000 </r>
       <r>   -43.6972     0.0000     2.0000 </r>
       <r>   -43.4390     0.0000     2.0000 </r>
       <r>   -43.1809     0.0000     2.0000 </r>
       <r>   -42.9227     0.0000     2.0000 </r>
       <r>   -42.6646     0.0000     2.0000 </r>
       <r>   -42.4064     0.0000     2.0000 </r>
       <r>   -42.1483     0.0000     2.0000 </r>
       <r>   -41.8901     0.0000     2.0000 </r>
       <r>   -41.6320     0.0000     2.0000 </r>
       <r>   -41.3738     0.0000     2.0000 </r>
       <r>   -41.1157     0.0000     2.0000 </r>
       <r>   -40.8575     0.0000     2.0000 </r>
       <r>   -40.5994     0.0000     2.0000 </r>
       <r>   -40.3412     0.0000     2.0000 </r>
       <r>   -40.0831     0.0000     2.0000 </r>
       <r>   -39.8249     0.0000     2.0000 </r>
       <r>   -39.5668     0.0000     2.0000 </r>
       <r>   -39.3086     0.0000     2.0000 </r>
       <r>   -39.0505     0.0000     2.0000 </r>
       <r>   -38.7923     0.0000     2.0000 </r>
       <r>   -38.5341     0.0000     2.0000 </r>
       <r>   -38.2760     0.0000     2.0000 </r>
       <r>   -38.0178     0.0000     2.0000 </r>
       <r>   -37.7597     0.0000     2.0000 </r>
       <r>   -37.5015     0.0000     2.0000 </r>
       <r>   -37.2434     0.0000     2.0000 </r>
       <r>   -36.9852     0.0000     2.0000 </r>
       <r>   -36.7271     0.0000     2.0000 </r>
       <r>   -36.4689     0.0000     2.0000 </r>
       <r>   -36.2108     0.0000     2.0000 </r>
       <r>   -35.9526     0.0684     2.0177 </r>
       <r>   -35.6945    10.7629     4.7961 </r>
       <r>   -35.4363    12.4100     7.9998 </r>
       <r>   -35.1782     0.0008     8.0000 </r>
       <r>   -34.9200     0.0000     8.0000 </r>
       <r>   -34.6619     0.0000     8.0000 </r>
       <r>   -34.4037     0.0000     8.0000 </r>
       <r>   -34.1456     0.0000     8.0000 </r>
       <r>   -33.8874     0.0000     8.0000 </r>
       <r>   -33.6293     0.0000     8.0000 </r>
       <r>   -33.3711     0.0000     8.0000 </r>
       <r>   -33.1130     0.0000     8.0000 </r>
       <r>   -32.8548     0.0000     8.0000 </r>
       <r>   -32.5966     0.0000     8.0000 </r>
       <r>   -32.3385     0.0000     8.0000 </r>
       <r>   -32.0803     0.0000     8.0000 </r>
       <r>   -31.8222     0.0000     8.0000 </r>
       <r>   -31.5640     0.0000     8.0000 </r>
       <r>   -31.3059     0.0000     8.0000 </r>
       <r>   -31.0477     0.0000     8.0000 </r>
       <r>   -30.7896     0.0000     8.0000 </r>
       <r>   -30.5314     0.0000     8.0000 </r>
       <r>   -30.2733     0.0000     8.0000 </r>
       <r>   -30.0151     0.0000     8.0000 </r>
       <r>   -29.7570     0.0000     8.0000 </r>
       <r>   -29.4988     0.0000     8.0000 </r>
       <r>   -29.2407     0.0000     8.0000 </r>
       <r>   -28.9825     0.0000     8.0000 </r>
       <r>   -28.7244     0.0000     8.0000 </r>
       <r>   -28.4662     0.0000     8.0000 </r>
       <r>   -28.2081     0.0000     8.0000 </r>
       <r>   -27.9499     0.0000     8.0000 </r>
       <r>   -27.6918     0.0000     8.0000 </r>
       <r>   -27.4336     0.0000     8.0000 </r>
       <r>   -27.1755     0.0000     8.0000 </r>
       <r>   -26.9173     0.0000     8.0000 </r>
       <r>   -26.6592     0.0000     8.0000 </r>
       <r>   -26.4010     0.0000     8.0000 </r>
       <r>   -26.1428     0.0000     8.0000 </r>
       <r>   -25.8847     0.0000     8.0000 </r>
       <r>   -25.6265     0.0000     8.0000 </r>
       <r>   -25.3684     0.0000     8.0000 </r>
       <r>   -25.1102     0.0000     8.0000 </r>
       <r>   -24.8521     0.0000     8.0000 </r>
       <r>   -24.5939     0.0000     8.0000 </r>
       <r>   -24.3358     0.0000     8.0000 </r>
       <r>   -24.0776     0.0000     8.0000 </r>
       <r>   -23.8195     0.0000     8.0000 </r>
       <r>   -23.5613     0.0000     8.0000 </r>
       <r>   -23.3032     0.0000     8.0000 </r>
       <r>   -23.0450     0.0000     8.0000 </r>
       <r>   -22.7869     0.0000     8.0000 </r>
       <r>   -22.5287     0.0000     8.0000 </r>
       <r>   -22.2706     0.0000     8.0000 </r>
       <r>   -22.0124     0.0000     8.0000 </r>
       <r>   -21.7543     0.0000     8.0000 </r>
       <r>   -21.4961     0.0000     8.0000 </r>
       <r>   -21.2380     0.0000     8.0000 </r>
       <r>   -20.9798     0.0000     8.0000 </r>
       <r>   -20.7217     0.0000     8.0000 </r>
       <r>   -20.4635     0.0000     8.0000 </r>
       <r>   -20.2054     0.0000     8.0000 </r>
       <r>   -19.9472     0.0000     8.0000 </r>
       <r>   -19.6890     0.0000     8.0000 </r>
       <r>   -19.4309     0.0000     8.0000 </r>
       <r>   -19.1727     0.0000     8.0000 </r>
       <r>   -18.9146     0.0000     8.0000 </r>
       <r>   -18.6564     0.0000     8.0000 </r>
       <r>   -18.3983     0.0000     8.0000 </r>
       <r>   -18.1401     0.0000     8.0000 </r>
       <r>   -17.8820     0.0000     8.0000 </r>
       <r>   -17.6238     0.0000     8.0000 </r>
       <r>   -17.3657     0.0000     8.0000 </r>
       <r>   -17.1075     0.0000     8.0000 </r>
       <r>   -16.8494     0.0000     8.0000 </r>
       <r>   -16.5912     0.0000     8.0000 </r>
       <r>   -16.3331     0.0000     8.0000 </r>
       <r>   -16.0749     0.0000     8.0000 </r>
       <r>   -15.8168     0.0000     8.0000 </r>
       <r>   -15.5586     0.0000     8.0000 </r>
       <r>   -15.3005     0.0000     8.0000 </r>
       <r>   -15.0423     0.0000     8.0000 </r>
       <r>   -14.7842     0.0542     8.0140 </r>
       <r>   -14.5260     0.5003     8.1431 </r>
       <r>   -14.2679     0.5904     8.2955 </r>
       <r>   -14.0097     0.4846     8.4207 </r>
       <r>   -13.7516     0.7428     8.6124 </r>
       <r>   -13.4934     0.8715     8.8374 </r>
       <r>   -13.2352     2.1970     9.4046 </r>
       <r>   -12.9771     3.2142    10.2343 </r>
       <r>   -12.7189     5.2014    11.5771 </r>
       <r>   -12.4608     1.6383    12.0000 </r>
       <r>   -12.2026     0.0000    12.0000 </r>
       <r>   -11.9445     0.0000    12.0000 </r>
       <r>   -11.6863     0.0000    12.0000 </r>
       <r>   -11.4282     0.0000    12.0000 </r>
       <r>   -11.1700     0.0000    12.0000 </r>
       <r>   -10.9119     0.0000    12.0000 </r>
       <r>   -10.6537     0.0000    12.0000 </r>
       <r>   -10.3956     0.0000    12.0000 </r>
       <r>   -10.1374     0.0000    12.0000 </r>
       <r>    -9.8793     0.0000    12.0000 </r>
       <r>    -9.6211     0.0000    12.0000 </r>
       <r>    -9.3630     0.0000    12.0000 </r>
       <r>    -9.1048     0.0000    12.0000 </r>
       <r>    -8.8467     0.0000    12.0000 </r>
       <r>    -8.5885     0.0000    12.0000 </r>
       <r>    -8.3304     0.0000    12.0000 </r>
       <r>    -8.0722     0.0000    12.0000 </r>
       <r>    -7.8141     0.0000    12.0000 </r>
       <r>    -7.5559     0.0000    12.0000 </r>
       <r>    -7.2978     0.0000    12.0000 </r>
       <r>    -7.0396     0.0000    12.0000 </r>
       <r>    -6.7814     0.0000    12.0000 </r>
       <r>    -6.5233     0.0058    12.0015 </r>
       <r>    -6.2651     0.9456    12.2456 </r>
       <r>    -6.0070     2.2080    12.8156 </r>
       <r>    -5.7488     3.9495    13.8352 </r>
       <r>    -5.4907     2.6957    14.5311 </r>
       <r>    -5.2325     1.5631    14.9346 </r>
       <r>    -4.9744     0.6923    15.1133 </r>
       <r>    -4.7162     1.5168    15.5049 </r>
       <r>    -4.4581     5.1000    16.8215 </r>
       <r>    -4.1999     1.9765    17.3317 </r>
       <r>    -3.9418     2.1968    17.8988 </r>
       <r>    -3.6836     4.8350    19.1470 </r>
       <r>    -3.4255     2.0950    19.6878 </r>
       <r>    -3.1673     1.4192    20.0542 </r>
       <r>    -2.9092     1.7348    20.5020 </r>
       <r>    -2.6510     2.7465    21.2110 </r>
       <r>    -2.3929     4.2093    22.2977 </r>
       <r>    -2.1347     2.6117    22.9719 </r>
       <r>    -1.8766     2.0843    23.5099 </r>
       <r>    -1.6184     2.3352    24.1128 </r>
       <r>    -1.3603     3.0364    24.8966 </r>
       <r>    -1.1021     2.2627    25.4808 </r>
       <r>    -0.8440     1.4478    25.8545 </r>
       <r>    -0.5858     0.5635    26.0000 </r>
       <r>    -0.3276     0.0000    26.0000 </r>
       <r>    -0.0695     0.0000    26.0000 </r>
       <r>     0.1887     0.0000    26.0000 </r>
       <r>     0.4468     0.0000    26.0000 </r>
       <r>     0.7050     0.0000    26.0000 </r>
       <r>     0.9631     0.0263    26.0068 </r>
       <r>     1.2213     0.6001    26.1617 </r>
       <r>     1.4794     4.5756    27.3429 </r>
       <r>     1.7376     3.9627    28.3659 </r>
       <r>     1.9957     5.1394    29.6926 </r>
       <r>     2.2539     3.1389    30.5029 </r>
       <r>     2.5120     3.2293    31.3366 </r>
       <r>     2.7702     1.8270    31.8082 </r>
       <r>     3.0283     1.6261    32.2280 </r>
       <r>     3.2865     1.4860    32.6116 </r>
       <r>     3.5446     2.4081    33.2333 </r>
       <r>     3.8028     1.7850    33.6941 </r>
       <r>     4.0609     0.9869    33.9488 </r>
       <r>     4.3191     0.1982    34.0000 </r>
       <r>     4.5772     0.0164    34.0042 </r>
       <r>     4.8354     0.2568    34.0705 </r>
       <r>     5.0935     0.4493    34.1865 </r>
       <r>     5.3517     0.8022    34.3936 </r>
       <r>     5.6099     1.1527    34.6912 </r>
       <r>     5.8680     1.5026    35.0791 </r>
       <r>     6.1262     1.7366    35.5274 </r>
       <r>     6.3843     1.9272    36.0249 </r>
       <r>     6.6425     2.2350    36.6019 </r>
       <r>     6.9006     1.2373    36.9213 </r>
       <r>     7.1588     2.4256    37.5475 </r>
       <r>     7.4169     2.3491    38.1539 </r>
       <r>     7.6751     3.2728    38.9988 </r>
       <r>     7.9332     1.5890    39.4090 </r>
       <r>     8.1914     0.9224    39.6471 </r>
       <r>     8.4495     0.7235    39.8339 </r>
       <r>     8.7077     0.3768    39.9311 </r>
       <r>     8.9658     0.2668    40.0000 </r>
       <r>     9.2240     0.0000    40.0000 </r>
       <r>     9.4821     0.0000    40.0000 </r>
       <r>     9.7403     0.0000    40.0000 </r>
       <r>     9.9984     0.0000    40.0000 </r>
       <r>    10.2566     0.0000    40.0000 </r>
       <r>    10.5147     0.0000    40.0000 </r>
       <r>    10.7729     0.0000    40.0000 </r>
       <r>    11.0310     0.0000    40.0000 </r>
       <r>    11.2892     0.0000    40.0000 </r>
       <r>    11.5473     0.0000    40.0000 </r>
       <r>    11.8055     0.0000    40.0000 </r>
       <r>    12.0637     0.0000    40.0000 </r>
       <r>    12.3218     0.0000    40.0000 </r>
      </set>
     </set>
    </array>
   </total>
  </dos>
 </calculation>
 <structure name="finalpos" >
  <crystal>
   <varray name="basis" >
    <v>       3.18386047       0.00000000       0.00000000 </v>
    <v>      -1.59193023       2.75730405       0.00000000 </v>
    <v>       0.00000000       0.00000000      15.00000000 </v>
   </varray>
   <i name="volume">    131.68307038 </i>
   <varray name="rec_basis" >
    <v>       0.31408412       0.18133655       0.00000000 </v>
    <v>       0.00000000       0.36267310       0.00000000 </v>
    <v>       0.00000000       0.00000000       0.06666667 </v>
   </varray>
  </crystal>
  <varray name="positions" >
   <v>       0.66666669       0.33333334       0.25000000 </v>
   <v>       0.33333334       0.66666669       0.35415213 </v>
   <v>       0.33333334       0.66666669       0.14584787 </v>
  </varray>
 </structure>
</modeling>
