unknown system                          
           1
     3.183860    0.000000    0.000000
    -1.591930    2.757304    0.000000
     0.000000    0.000000   15.000000
   Mo   S 
   1   2
Direct configuration=     1
   0.66666669  0.33333334  0.25000000
   0.33333334  0.66666669  0.35415206
   0.33333334  0.66666669  0.14584794
Direct configuration=     2
   0.66666669  0.33333334  0.25000000
   0.33333334  0.66666669  0.35415213
   0.33333334  0.66666669  0.14584787
