unknown system                          
   1.00000000000000     
     3.183860    0.000000    0.000000
    -1.591930    2.757304    0.000000
     0.000000    0.000000   15.000000
   Mo   S 
     1     2
Direct
  0.666667  0.333333  0.250000
  0.333333  0.666667  0.354152
  0.333333  0.666667  0.145848
 
   28   28  120
 0.19205     0.19391     0.19942     0.20891     0.22257     0.24025     0.26171     0.28526     0.31114     0.33684    
 0.36078     0.38170     0.39875     0.40917     0.41242     0.40868     0.39868     0.38336     0.36228     0.33756    
 0.31105     0.28507     0.26062     0.23977     0.22257     0.20919     0.19967     0.19393     0.19386     0.19396    
 0.19667     0.20208     0.21039     0.22209     0.23664     0.25444     0.27299     0.29224     0.31074     0.32740    
 0.34062     0.35048     0.35538     0.35514     0.34995     0.34031     0.32753     0.31143     0.29279     0.27283    
 0.25375     0.23630     0.22178     0.21053     0.20210     0.19661     0.19936     0.19871     0.19958     0.20219    
 0.20649     0.21306     0.22181     0.23220     0.24510     0.25893     0.27153     0.28238     0.29134     0.29785    
 0.30197     0.30334     0.30160     0.29768     0.29060     0.28158     0.27070     0.25904     0.24590     0.23328    
 0.22193     0.21315     0.20666     0.20214     0.20887     0.20813     0.20853     0.20926     0.21065     0.21337    
 0.21738     0.22268     0.22819     0.23498     0.24265     0.24888     0.25171     0.25360     0.25493     0.25559    
 0.25566     0.25490     0.25387     0.25113     0.24694     0.24150     0.23601     0.22944     0.22277     0.21726    
 0.21341     0.21070     0.22260     0.22264     0.22309     0.22322     0.22259     0.22195     0.22255     0.22290    
 0.22368     0.22413     0.22490     0.22436     0.22241     0.21908     0.21555     0.21259     0.21129     0.21302    
 0.21648     0.22012     0.22242     0.22419     0.22488     0.22475     0.22361     0.22235     0.22226     0.22254    
 0.24044     0.24244     0.24390     0.24453     0.24290     0.23963     0.23627     0.23392     0.22986     0.22467    
 0.21953     0.21347     0.20475     0.19513     0.18510     0.17681     0.17131     0.17043     0.17635     0.18664    
 0.19676     0.20475     0.21283     0.21988     0.22473     0.22853     0.23248     0.23706     0.26194     0.26729    
 0.27066     0.27264     0.27195     0.26704     0.26033     0.25299     0.24594     0.23644     0.22557     0.21317    
 0.19958     0.18319     0.16573     0.15075     0.14013     0.13525     0.13798     0.14973     0.16689     0.18416    
 0.19892     0.21349     0.22618     0.23563     0.24454     0.25365     0.28551     0.29684     0.30299     0.30775    
 0.30830     0.30485     0.29510     0.28499     0.27211     0.25835     0.24167     0.22525     0.20546     0.18430    
 0.15879     0.13682     0.11959     0.10993     0.10797     0.11798     0.13617     0.15965     0.18253     0.20490    
 0.22537     0.24352     0.25727     0.27224     0.31111     0.32845     0.34052     0.34792     0.35186     0.34994    
 0.34110     0.32679     0.31119     0.29249     0.27027     0.24630     0.22247     0.19649     0.16621     0.13558    
 0.11151     0.96118E-01 0.89372E-01 0.94084E-01 0.11153     0.13737     0.16563     0.19432     0.22246     0.24890    
 0.27108     0.29109     0.33656     0.36101     0.38081     0.39307     0.40049     0.40154     0.39458     0.37977    
 0.36049     0.33788     0.31147     0.28145     0.25060     0.21967     0.18626     0.14953     0.11765     0.94210E-01
 0.82201E-01 0.81390E-01 0.94863E-01 0.11949     0.15135     0.18435     0.21843     0.25188     0.28307     0.30990    
 0.36058     0.39264     0.42038     0.44050     0.45307     0.45821     0.45448     0.43990     0.41882     0.39321    
 0.36295     0.32754     0.29059     0.25350     0.21666     0.17685     0.13864     0.10842     0.88487E-01 0.80556E-01
 0.87611E-01 0.10959     0.14105     0.17700     0.21477     0.25346     0.29229     0.32742     0.38173     0.42137    
 0.45724     0.48651     0.50504     0.51615     0.51650     0.50639     0.48391     0.45589     0.42216     0.38395    
 0.34066     0.29777     0.25505     0.21365     0.17137     0.13559     0.10912     0.94770E-01 0.92848E-01 0.10762    
 0.13592     0.17266     0.21212     0.25461     0.29822     0.34179     0.39878     0.44515     0.48887     0.52572    
 0.55434     0.57240     0.57969     0.57348     0.55455     0.52463     0.48808     0.44569     0.39882     0.34997    
 0.30180     0.25539     0.21138     0.17167     0.14044     0.11978     0.11155     0.11782     0.13892     0.17177    
 0.21137     0.25464     0.30201     0.35115     0.40926     0.46263     0.51289     0.55920     0.59726     0.62244    
 0.63561     0.63674     0.62366     0.59682     0.55884     0.51334     0.46265     0.40868     0.35508     0.30313    
 0.25484     0.21152     0.17646     0.15157     0.13793     0.13676     0.15034     0.17656     0.21249     0.25477    
 0.30280     0.35565     0.41262     0.47160     0.52856     0.58315     0.62813     0.66014     0.68001     0.68659    
 0.68066     0.66124     0.62871     0.58305     0.52889     0.47138     0.41260     0.35554     0.30190     0.25442    
 0.21463     0.18469     0.16635     0.16048     0.16677     0.18581     0.21573     0.25460     0.30164     0.35534    
 0.40890     0.47142     0.53423     0.59559     0.64687     0.68666     0.71506     0.72995     0.72909     0.71404    
 0.68652     0.64770     0.59554     0.53414     0.47163     0.40946     0.35104     0.29814     0.25382     0.21887    
 0.19458     0.18237     0.18349     0.19599     0.21955     0.25369     0.29802     0.35060     0.39874     0.46240    
 0.52866     0.59560     0.65300     0.69969     0.73727     0.76061     0.76825     0.75962     0.73637     0.69957    
 0.65315     0.59500     0.52868     0.46290     0.39871     0.34149     0.29227     0.25243     0.22239     0.20422    
 0.19825     0.20491     0.22238     0.25122     0.29164     0.34152     0.38321     0.44514     0.51314     0.58304    
 0.64743     0.69912     0.74446     0.77664     0.79321     0.79138     0.77574     0.74451     0.70024     0.64601    
 0.58297     0.51296     0.44607     0.38089     0.32753     0.28311     0.24959     0.22426     0.21314     0.21284    
 0.22518     0.24713     0.28222     0.32753     0.36197     0.42193     0.48794     0.55918     0.62864     0.68623    
 0.73580     0.77519     0.80042     0.80840     0.79986     0.77592     0.73757     0.68637     0.62751     0.55941    
 0.48917     0.42164     0.35973     0.31000     0.27139     0.24346     0.22540     0.22034     0.22607     0.24241    
 0.27000     0.31079     0.33731     0.39322     0.45626     0.52537     0.59732     0.66153     0.71419     0.76003    
 0.79148     0.80774     0.80697     0.79235     0.76089     0.71563     0.65991     0.59686     0.52643     0.45785    
 0.39195     0.33634     0.29132     0.25800     0.23516     0.22480     0.22533     0.23665     0.25751     0.29162    
 0.31111     0.36106     0.41954     0.48465     0.55441     0.62355     0.68086     0.72928     0.76818     0.79223    
 0.79919     0.79057     0.76822     0.73057     0.68042     0.62195     0.55442     0.48676     0.42048     0.36035    
 0.31108     0.27287     0.24458     0.22805     0.22362     0.22971     0.24537     0.27194     0.28526     0.32770    
 0.38059     0.43990     0.50547     0.57279     0.63657     0.68730     0.73042     0.76057     0.77651     0.77513    
 0.75979     0.72976     0.68802     0.63486     0.57236     0.50483     0.44140     0.37992     0.32857     0.28550    
 0.25447     0.23179     0.22222     0.22244     0.23354     0.25306     0.26089     0.29598     0.34102     0.39388    
 0.45347     0.51600     0.57915     0.63517     0.68008     0.71556     0.73794     0.74457     0.73647     0.71485    
 0.68096     0.63610     0.57878     0.51591     0.45340     0.39304     0.34023     0.29682     0.26231     0.23702    
 0.22171     0.21708     0.22242     0.23663     0.23995     0.26705     0.30407     0.34917     0.40126     0.45847    
 0.51650     0.57301     0.62204     0.65966     0.68666     0.70085     0.70020     0.68638     0.66068     0.62324    
 0.57343     0.51624     0.45882     0.40077     0.34800     0.30263     0.26763     0.24053     0.22239     0.21317    
 0.21351     0.22224     0.22262     0.24254     0.27122     0.30793     0.35181     0.40113     0.45433     0.50580    
 0.55450     0.59643     0.62750     0.64627     0.65307     0.64671     0.62798     0.59702     0.55429     0.50624    
 0.45481     0.40182     0.35184     0.30742     0.27068     0.24257     0.22262     0.21054     0.20685     0.21080    
 0.20915     0.22290     0.24422     0.27265     0.30784     0.34871     0.39380     0.44137     0.48602     0.52567    
 0.55904     0.58301     0.59502     0.59516     0.58311     0.55879     0.52484     0.48472     0.44052     0.39469    
 0.34994     0.30803     0.27264     0.24386     0.22277     0.20878     0.20206     0.20217     0.19960     0.20827    
 0.22317     0.24418     0.27135     0.30345     0.34027     0.37908     0.41976     0.45750     0.48933     0.51314    
 0.52885     0.53389     0.52876     0.51326     0.48894     0.45653     0.41854     0.37915     0.34064     0.30459    
 0.27189     0.24452     0.22325     0.20810     0.19944     0.19654     0.19388     0.19866     0.20834     0.22310    
 0.24294     0.26761     0.29593     0.32766     0.35982     0.39191     0.42181     0.44661     0.46318     0.47170    
 0.47158     0.46317     0.44645     0.42202     0.39269     0.35998     0.32678     0.29517     0.26732     0.24307    
 0.22334     0.20849     0.19861     0.19384     0.25845     0.26145     0.27041     0.28590     0.30828     0.33759    
 0.37326     0.41340     0.45678     0.50047     0.54143     0.57698     0.60532     0.62277     0.62846     0.62245    
 0.60532     0.57856     0.54291     0.50115     0.45679     0.41305     0.37217     0.33710     0.30829     0.28617    
 0.27065     0.26148     0.26138     0.26151     0.26564     0.27414     0.28750     0.30649     0.33070     0.36010    
 0.39210     0.42528     0.45754     0.48699     0.51050     0.52788     0.53673     0.53638     0.52725     0.51026    
 0.48706     0.45855     0.42588     0.39186     0.35945     0.33025     0.30615     0.28766     0.27418     0.26557    
 0.27036     0.26938     0.27061     0.27424     0.28069     0.29083     0.30493     0.32254     0.34417     0.36806    
 0.39134     0.41183     0.42992     0.44396     0.45289     0.45594     0.45252     0.44372     0.42926     0.41092    
 0.39021     0.36816     0.34507     0.32367     0.30511     0.29094     0.28086     0.27420     0.28587     0.28517    
 0.28561     0.28625     0.28781     0.29123     0.29702     0.30524     0.31517     0.32755     0.34169     0.35496    
 0.36541     0.37323     0.37868     0.38133     0.38153     0.37866     0.37349     0.36470     0.35309     0.34056    
 0.32874     0.31637     0.30540     0.29681     0.29129     0.28778     0.30833     0.30942     0.31028     0.31003    
 0.30828     0.30630     0.30567     0.30552     0.30642     0.30847     0.31148     0.31467     0.31730     0.31730    
 0.31697     0.31658     0.31622     0.31688     0.31797     0.31843     0.31725     0.31444     0.31139     0.30905    
 0.30644     0.30491     0.30543     0.30697     0.33779     0.34237     0.34522     0.34593     0.34287     0.33702    
 0.33029     0.32442     0.31691     0.30892     0.30168     0.29587     0.28784     0.27880     0.27102     0.26549    
 0.26187     0.26101     0.26506     0.27264     0.28054     0.28793     0.29512     0.30218     0.30903     0.31546    
 0.32285     0.33105     0.37354     0.38367     0.39003     0.39315     0.39130     0.38333     0.37175     0.35863    
 0.34497     0.32931     0.31218     0.29548     0.27873     0.25961     0.24275     0.23009     0.22139     0.21711    
 0.21914     0.22893     0.24396     0.26057     0.27806     0.29586     0.31272     0.32832     0.34357     0.35939    
 0.41366     0.43235     0.44394     0.45143     0.45221     0.44588     0.43077     0.41304     0.39118     0.36733    
 0.34065     0.31566     0.28867     0.26073     0.23298     0.21129     0.19544     0.18634     0.18438     0.19360    
 0.21085     0.23380     0.25897     0.28793     0.31584     0.34258     0.36649     0.39107     0.45684     0.48521    
 0.50565     0.51827     0.52394     0.52029     0.50608     0.48335     0.45679     0.42574     0.38982     0.35232    
 0.31727     0.28029     0.24320     0.21027     0.18536     0.16973     0.16280     0.16759     0.18537     0.21199    
 0.24263     0.27801     0.31726     0.35514     0.39054     0.42414     0.50019     0.53967     0.57163     0.59246    
 0.60454     0.60558     0.59430     0.57073     0.53938     0.50132     0.45843     0.41093     0.36415     0.31797    
 0.27226     0.22864     0.19336     0.16771     0.15465     0.15374     0.16848     0.19525     0.23071     0.27012    
 0.31676     0.36544     0.41262     0.45683     0.54110     0.59253     0.63713     0.66965     0.68985     0.69773    
 0.69133     0.66872     0.63508     0.59339     0.54380     0.48693     0.42922     0.37311     0.31809     0.26571    
 0.21978     0.18479     0.16187     0.15285     0.16094     0.18596     0.22236     0.26578     0.31613     0.37305    
 0.43098     0.48698     0.57690     0.64061     0.69771     0.74459     0.77653     0.79431     0.79471     0.77794    
 0.74252     0.69618     0.64106     0.57949     0.51059     0.44383     0.37887     0.31746     0.26201     0.21748    
 0.18556     0.16832     0.16632     0.18399     0.21786     0.26327     0.31601     0.37834     0.44439     0.51174    
 0.60538     0.67992     0.75048     0.81183     0.85696     0.88482     0.89555     0.88598     0.85681     0.81021    
 0.75024     0.68028     0.60533     0.52744     0.45258     0.38141     0.31619     0.26232     0.22165     0.19555    
 0.18538     0.19348     0.22008     0.26242     0.31625     0.38048     0.45287     0.52859     0.62295     0.70854    
 0.79188     0.86557     0.92422     0.96668     0.98917     0.99058     0.96793     0.92445     0.86482     0.79235    
 0.70872     0.62224     0.53648     0.45555     0.38067     0.31540     0.26517     0.23099     0.21261     0.21149    
 0.22953     0.26532     0.31636     0.38062     0.45530     0.53700     0.62865     0.72359     0.81785     0.90319    
 0.97757      1.0359      1.0726      1.0848      1.0731      1.0368     0.97808     0.90330     0.81790     0.72354    
 0.62848     0.53709     0.45271     0.37817     0.31597     0.27053     0.24334     0.23463     0.24385     0.27181    
 0.31712     0.37830     0.45249     0.53672     0.62248     0.72346     0.82686     0.92321      1.0117      1.0851    
  1.1356      1.1611      1.1602      1.1346      1.0851      1.0124     0.92341     0.82660     0.72381     0.62294    
 0.52850     0.44427     0.37344     0.31722     0.27826     0.25882     0.25993     0.27970     0.31780     0.37335    
 0.44419     0.52798     0.60534     0.70844     0.81776     0.92336      1.0233      1.1096      1.1740      1.2128    
  1.2254      1.2117      1.1728      1.1096      1.0232     0.92280     0.81774     0.70908     0.60529     0.51135    
 0.43105     0.36597     0.31725     0.28717     0.27738     0.28801     0.31729     0.36481     0.43023     0.51145    
 0.57866     0.67969     0.79210     0.90323      1.0121      1.1089      1.1861      1.2391      1.2664      1.2644    
  1.2384      1.1862      1.1104      1.0106     0.90327     0.79177     0.68072     0.57623     0.48697     0.41270    
 0.35585     0.31467     0.29550     0.29512     0.31563     0.35307     0.41176     0.48704     0.54271     0.64084    
 0.75010     0.86525     0.97810      1.0848      1.1724      1.2377      1.2790      1.2929      1.2783      1.2385    
  1.1740      1.0849     0.97681     0.86551     0.75146     0.64044     0.54041     0.45679     0.39106     0.34238    
 0.31201     0.30255     0.31272     0.34140     0.38967     0.45761     0.50083     0.59342     0.69657     0.81097    
 0.92484      1.0371      1.1347      1.2120      1.2645      1.2920      1.2912      1.2656      1.2129      1.1365    
  1.0353     0.92451     0.81193     0.69847     0.59188     0.49992     0.42435     0.36727     0.32778     0.30917    
 0.30962     0.32951     0.36645     0.42475     0.45675     0.53987     0.63586     0.74325     0.85676     0.96786    
  1.0735      1.1604      1.2254      1.2655      1.2777      1.2635      1.2253      1.1618      1.0729     0.96621    
 0.85673     0.74546     0.63687     0.53911     0.45672     0.39184     0.34357     0.31499     0.30636     0.31674    
 0.34443     0.39097     0.41337     0.48429     0.57165     0.66873     0.77693     0.88528     0.99019      1.0856    
  1.1616      1.2125      1.2391      1.2376      1.2119      1.1609      1.0863     0.98850     0.88472     0.77639    
 0.67026     0.57098     0.48516     0.41376     0.36015     0.32216     0.30478     0.30505     0.32399     0.35864    
 0.37240     0.43161     0.50605     0.59345     0.69037     0.79402     0.89517     0.98872      1.0727      1.1363    
  1.1747      1.1862      1.1731      1.1353      1.0736     0.98979     0.89464     0.79402     0.69023     0.59258    
 0.50518     0.43242     0.37387     0.33109     0.30478     0.29666     0.30555     0.33069     0.33730     0.38333    
 0.44508     0.51952     0.60524     0.69810     0.79460     0.88546     0.96629      1.0349      1.0853      1.1108    
  1.1102      1.0848      1.0365     0.96739     0.88589     0.79442     0.69839     0.60483     0.51825     0.44365    
 0.38396     0.33792     0.30679     0.29102     0.29139     0.30660     0.30832     0.34249     0.39060     0.45171    
 0.52398     0.60508     0.69127     0.77733     0.85683     0.92403     0.97686      1.0108      1.0233      1.0115    
 0.97743     0.92410     0.85694     0.77773     0.69171     0.60587     0.52393     0.45115     0.38997     0.34256    
 0.30828     0.28766     0.28101     0.28797     0.28615     0.30969     0.34558     0.39312     0.45159     0.51907    
 0.59336     0.67028     0.74472     0.81117     0.86509     0.90328     0.92275     0.92276     0.90311     0.86504    
 0.81084     0.74278     0.66963     0.59428     0.52035     0.45187     0.39312     0.34522     0.30956     0.28579    
 0.27413     0.27423     0.27060     0.28534     0.31035     0.34556     0.39074     0.44438     0.50524     0.57007    
 0.63607     0.69805     0.75157     0.79202     0.81793     0.82649     0.81806     0.79239     0.75061     0.69690    
 0.63522     0.56979     0.50579     0.44548     0.39134     0.34590     0.31043     0.28513     0.27041     0.26552    
 0.26142     0.26934     0.28541     0.30988     0.34292     0.38396     0.43157     0.48421     0.53857     0.59187    
 0.64072     0.68131     0.70932     0.72376     0.72356     0.70898     0.68125     0.64135     0.59256     0.53866    
 0.48344     0.43074     0.38368     0.34301     0.31018     0.28558     0.26932     0.26135     0.34345     0.34861    
 0.36410     0.39049     0.42815     0.47670     0.53517     0.60034     0.67065     0.74097     0.80704     0.86486    
 0.91089     0.93976     0.94931     0.93920     0.91080     0.86673     0.80874     0.74178     0.67054     0.60014    
 0.53395     0.47616     0.42815     0.39081     0.36438     0.34863     0.34855     0.34867     0.35581     0.37041    
 0.39314     0.42488     0.46490     0.51304     0.56534     0.62021     0.67415     0.72377     0.76485     0.79514    
 0.81084     0.81057     0.79457     0.76453     0.72392     0.67491     0.62081     0.56515     0.51225     0.46452    
 0.42453     0.39331     0.37044     0.35574     0.36403     0.36228     0.36428     0.37053     0.38157     0.39866    
 0.42215     0.45145     0.48726     0.52713     0.56760     0.60652     0.64167     0.66977     0.68826     0.69468    
 0.68785     0.66960     0.64085     0.60564     0.56665     0.52724     0.48816     0.45267     0.42228     0.39877    
 0.38175     0.37048     0.39045     0.38938     0.38982     0.39090     0.39345     0.39902     0.40833     0.42201    
 0.43926     0.46166     0.48874     0.51733     0.54363     0.56779     0.58681     0.59731     0.59740     0.58677    
 0.56809     0.54298     0.51515     0.48746     0.46282     0.44068     0.42210     0.40820     0.39906     0.39349    
 0.42818     0.43035     0.43164     0.43099     0.42818     0.42474     0.42299     0.42225     0.42439     0.42974    
 0.44021     0.45463     0.47236     0.49109     0.50822     0.52009     0.52417     0.52055     0.50925     0.49222    
 0.47236     0.45447     0.44021     0.43043     0.42431     0.42164     0.42265     0.42539     0.47690     0.48506    
 0.48989     0.49059     0.48556     0.47600     0.46449     0.45341     0.44116     0.43036     0.42454     0.42466    
 0.42956     0.43991     0.45241     0.46385     0.46982     0.46884     0.46334     0.45412     0.44174     0.42958    
 0.42395     0.42493     0.43041     0.43967     0.45178     0.46537     0.53542     0.55250     0.56336     0.56801    
 0.56480     0.55222     0.53363     0.51139     0.48820     0.46332     0.44099     0.42433     0.41615     0.41483    
 0.41929     0.42761     0.43475     0.43639     0.43237     0.42648     0.42058     0.41591     0.41541     0.42469    
 0.44165     0.46239     0.48664     0.51214     0.60063     0.63095     0.65036     0.66214     0.66274     0.65242    
 0.62902     0.60004     0.56432     0.52645     0.48766     0.45568     0.43038     0.41607     0.40803     0.40986    
 0.41508     0.41898     0.41680     0.41329     0.40914     0.40899     0.41409     0.42975     0.45578     0.48971    
 0.52527     0.56449     0.67061     0.71558     0.74865     0.76913     0.77766     0.77137     0.74932     0.71375    
 0.67070     0.62047     0.56615     0.51442     0.47242     0.44145     0.41984     0.40849     0.40781     0.41125    
 0.41154     0.40899     0.40783     0.41047     0.41919     0.43903     0.47241     0.51732     0.56707     0.61893    
 0.74067     0.80267     0.85315     0.88675     0.90526     0.90642     0.88843     0.85202     0.80211     0.74214    
 0.67497     0.60549     0.54238     0.49171     0.45371     0.42626     0.41294     0.40914     0.40960     0.40870    
 0.40986     0.41497     0.42828     0.45158     0.49035     0.54382     0.60729     0.67322     0.80686     0.88729    
 0.95705      1.0093      1.0420      1.0541      1.0436      1.0086     0.95534     0.88794     0.80950     0.72393    
 0.64084     0.56767     0.50944     0.46389     0.43310     0.41731     0.41055     0.40777     0.40958     0.41860    
 0.43577     0.46405     0.50735     0.56763     0.64273     0.72378     0.86492     0.96420      1.0548      1.1292    
  1.1796      1.2074      1.2078      1.1811      1.1263      1.0533     0.96510     0.86741     0.76494     0.66970    
 0.58694     0.52124     0.46988     0.43677     0.41808     0.40976     0.40762     0.41642     0.43714     0.47131    
 0.51956     0.58646     0.67020     0.76616     0.91092      1.0280      1.1398      1.2364      1.3117      1.3596    
  1.3773      1.3608      1.3120      1.2352      1.1389      1.0286     0.91097     0.79460     0.68810     0.59710    
 0.52426     0.47021     0.43510     0.41529     0.40785     0.41312     0.43340     0.47032     0.52426     0.59628    
 0.68831     0.79590     0.93983      1.0743      1.2056      1.3274      1.4290      1.5000      1.5373      1.5386    
  1.5014      1.4286      1.3270      1.2061      1.0743     0.93920     0.81050     0.69446     0.59648     0.51890    
 0.46346     0.42852     0.41109     0.40981     0.42716     0.46358     0.51996     0.59642     0.69407     0.81114    
 0.94951      1.0983      1.2482      1.3933      1.5190      1.6149      1.6762      1.6972      1.6770      1.6162    
  1.5197      1.3932      1.2485      1.0980     0.94950     0.81102     0.68818     0.58625     0.50721     0.45196    
 0.41997     0.40991     0.42045     0.45321     0.50840     0.58644     0.68790     0.81079     0.93943      1.0981    
  1.2631      1.4278      1.5759      1.6986      1.7884      1.8361      1.8351      1.7872      1.6984      1.5769    
  1.4277      1.2630      1.0983     0.94007     0.79575     0.67011     0.56804     0.49086     0.43930     0.41391    
 0.41517     0.44091     0.49158     0.56788     0.66997     0.79530     0.91087      1.0740      1.2483      1.4278    
  1.5953      1.7420      1.8614      1.9384      1.9648      1.9373      1.8604      1.7419      1.5954      1.4271    
  1.2483      1.0746     0.91084     0.76582     0.64271     0.54444     0.47234     0.42897     0.41467     0.42978    
 0.47232     0.54306     0.64200     0.76590     0.86659      1.0280      1.2059      1.3931      1.5766      1.7414    
  1.8862      1.9930      2.0496      2.0475      1.9919      1.8863      1.7427      1.5749      1.3931      1.2057    
  1.0291     0.86397     0.72392     0.60733     0.51811     0.45453     0.42429     0.42396     0.45559     0.51534    
 0.60633     0.72392     0.80840     0.96485      1.1387      1.3274      1.5196      1.6981      1.8597      1.9913    
  2.0775      2.1068      2.0769      1.9921      1.8617      1.6983      1.5183      1.3276      1.1401     0.96452    
 0.80588     0.67334     0.56744     0.48964     0.44076     0.42545     0.44155     0.48849     0.56585     0.67421    
 0.74151     0.88795      1.0537      1.2360      1.4291      1.6165      1.7874      1.9378      2.0476      2.1060    
  2.1052      2.0486      1.9388      1.7891      1.6147      1.4286      1.2372      1.0555     0.88650     0.74042    
 0.61919     0.52610     0.46186     0.43048     0.43110     0.46355     0.52552     0.61950     0.67061     0.80274    
 0.95614      1.1271      1.3118      1.5013      1.6772      1.8353      1.9647      2.0484      2.0761      2.0466    
  1.9647      1.8368      1.6767      1.4995      1.3118      1.1295     0.95718     0.80192     0.67058     0.56521    
 0.48669     0.43912     0.42432     0.44100     0.48757     0.56413     0.60035     0.71476     0.85293      1.0086    
  1.1801      1.3600      1.5384      1.6980      1.8366      1.9384      1.9928      1.9912      1.9375      1.8359    
  1.6988      1.5365      1.3596      1.1794      1.0103     0.85214     0.71572     0.60061     0.51308     0.45099    
 0.42149     0.42174     0.45298     0.51147     0.53424     0.63000     0.74922     0.88765      1.0424      1.2072    
  1.3766      1.5368      1.6763      1.7890      1.8621      1.8864      1.8605      1.7882      1.6773      1.5379    
  1.3762      1.2071      1.0424     0.88672     0.74832     0.63093     0.53584     0.46532     0.42203     0.40799    
 0.42284     0.46489     0.47635     0.55222     0.65157     0.77053     0.90612      1.0544      1.2078      1.3603    
  1.4996      1.6144      1.6986      1.7434      1.7426      1.6983      1.6156      1.5009      1.3607      1.2075    
  1.0548     0.90558     0.76922     0.64994     0.55288     0.47700     0.42521     0.39878     0.39918     0.42505    
 0.42820     0.48516     0.56398     0.66234     0.77760     0.90597      1.0434      1.1804      1.3119      1.4281    
  1.5183      1.5752      1.5953      1.5757      1.5188      1.4288      1.3117      1.1809      1.0439     0.90674    
 0.77764     0.66176     0.56338     0.48520     0.42821     0.39331     0.38197     0.39362     0.39077     0.43063    
 0.49024     0.56802     0.66223     0.77000     0.88756      1.0103      1.1287      1.2363      1.3272      1.3931    
  1.4271      1.4273      1.3932      1.3269      1.2354      1.1272      1.0093     0.88855     0.77137     0.66244    
 0.56801     0.48985     0.43049     0.39036     0.37039     0.37052     0.36431     0.38954     0.43173     0.49019    
 0.56413     0.65085     0.74837     0.85119     0.95639      1.0551      1.1403      1.2059      1.2485      1.2627    
  1.2484      1.2060      1.1399      1.0540     0.95502     0.85131     0.74878     0.65213     0.56472     0.49058    
 0.43182     0.38934     0.36412     0.35565     0.34857     0.36222     0.38961     0.43086     0.48562     0.55286    
 0.62994     0.71471     0.80132     0.88646     0.96470      1.0296      1.0749      1.0984      1.0983      1.0749    
  1.0294     0.96492     0.88734     0.80152     0.71373     0.62911     0.55253     0.48575     0.43113     0.38978    
 0.36216     0.34853     0.45587     0.46460     0.49065     0.53426     0.59519     0.67248     0.76410     0.86616    
 0.97497      1.0845      1.1878      1.2781      1.3496      1.3946      1.4098      1.3943      1.3496      1.2799    
  1.1894      1.0852     0.97500     0.86577     0.76288     0.67193     0.59521     0.53457     0.49091     0.46464    
 0.46453     0.46467     0.47698     0.50185     0.53977     0.59126     0.65517     0.73041     0.81254     0.89797    
 0.98189      1.0592      1.1231      1.1700      1.1944      1.1940      1.1693      1.1229      1.0593     0.98301    
 0.89863     0.81225     0.72968     0.65466     0.59088     0.53996     0.50191     0.47691     0.49059     0.48718    
 0.49086     0.50197     0.52122     0.54984     0.58820     0.63554     0.69184     0.75415     0.81772     0.87802    
 0.93270     0.97652      1.0050      1.0149      1.0046     0.97627     0.93197     0.87700     0.81642     0.75423    
 0.69285     0.63682     0.58841     0.54998     0.52142     0.50192     0.53423     0.53177     0.53226     0.53467    
 0.54013     0.55032     0.56642     0.58906     0.61780     0.65361     0.69549     0.73945     0.78116     0.81762    