unknown system                          
   1.00000000000000     
     3.183860    0.000000    0.000000
    -1.591930    2.757304    0.000000
     0.000000    0.000000   15.000000
   Mo   S 
     1     2
Direct
  0.666667  0.333333  0.250000
  0.333333  0.666667  0.354152
  0.333333  0.666667  0.145848
 
   28   28  120
 0.19205188063E+00 0.19391209454E+00 0.19942461599E+00 0.20890913750E+00 0.22256833066E+00
 0.24024627490E+00 0.26170625696E+00 0.28525750670E+00 0.31114368363E+00 0.33684354209E+00
 0.36077761735E+00 0.38170212392E+00 0.39874815102E+00 0.40916610747E+00 0.41242225329E+00
 0.40867946560E+00 0.39868065616E+00 0.38335755187E+00 0.36227985632E+00 0.33756049938E+00
 0.31104527060E+00 0.28506903656E+00 0.26061550609E+00 0.23976718422E+00 0.22257397085E+00
 0.20918788795E+00 0.19966882001E+00 0.19393456557E+00 0.19385723611E+00 0.19396384260E+00
 0.19667432490E+00 0.20207869580E+00 0.21038774147E+00 0.22209290100E+00 0.23664394533E+00
 0.25443661663E+00 0.27299336984E+00 0.29223749121E+00 0.31073558239E+00 0.32740337970E+00
 0.34061722872E+00 0.35047781773E+00 0.35538346603E+00 0.35513985295E+00 0.34994927181E+00
 0.34031091218E+00 0.32753238309E+00 0.31142808750E+00 0.29278655599E+00 0.27283216187E+00
 0.25374756196E+00 0.23630099587E+00 0.22177803668E+00 0.21053337858E+00 0.20210012367E+00
 0.19660610990E+00 0.19936067062E+00 0.19871462758E+00 0.19957988295E+00 0.20218914744E+00
 0.20649200406E+00 0.21306059279E+00 0.22181134927E+00 0.23220078436E+00 0.24509503805E+00
 0.25892616396E+00 0.27153448353E+00 0.28237805338E+00 0.29133858454E+00 0.29784608349E+00
 0.30197427972E+00 0.30334198456E+00 0.30159955578E+00 0.29768172723E+00 0.29059642348E+00
 0.28157873563E+00 0.27070292090E+00 0.25904013404E+00 0.24590241427E+00 0.23327645020E+00
 0.22192517104E+00 0.21315317146E+00 0.20665517873E+00 0.20213792708E+00 0.20887344127E+00
 0.20812919561E+00 0.20852542380E+00 0.20926274030E+00 0.21065373650E+00 0.21336817467E+00
 0.21737926564E+00 0.22268194709E+00 0.22818648564E+00 0.23497750471E+00 0.24264730206E+00
 0.24887665755E+00 0.25170529403E+00 0.25360356205E+00 0.25493267361E+00 0.25558673127E+00
 0.25565789554E+00 0.25489561119E+00 0.25386774691E+00 0.25112653986E+00 0.24693951745E+00
 0.24149897926E+00 0.23601058041E+00 0.22944022142E+00 0.22276808759E+00 0.21725611483E+00
 0.21340531523E+00 0.21069639324E+00 0.22259604891E+00 0.22264044461E+00 0.22308930914E+00
 0.22321706102E+00 0.22259445871E+00 0.22195456239E+00 0.22254682554E+00 0.22290105617E+00
 0.22367983844E+00 0.22413250658E+00 0.22490120422E+00 0.22435749637E+00 0.22241041948E+00
 0.21908053724E+00 0.21554625620E+00 0.21259441591E+00 0.21129035607E+00 0.21301684352E+00
 0.21648483190E+00 0.22011607115E+00 0.22241551474E+00 0.22419023303E+00 0.22487694440E+00
 0.22474737907E+00 0.22360717620E+00 0.22234965967E+00 0.22225541885E+00 0.22254278172E+00
 0.24043759224E+00 0.24244005564E+00 0.24389735297E+00 0.24452938241E+00 0.24289984833E+00
 0.23963013967E+00 0.23627073743E+00 0.23392373512E+00 0.22985632140E+00 0.22466866455E+00
 0.21952578685E+00 0.21347394976E+00 0.20475053035E+00 0.19512665294E+00 0.18509759142E+00
 0.17681295001E+00 0.17131294616E+00 0.17043433703E+00 0.17635141682E+00 0.18663780922E+00
 0.19676187755E+00 0.20474840346E+00 0.21282782329E+00 0.21988009728E+00 0.22473046705E+00
 0.22852871010E+00 0.23247724784E+00 0.23706163130E+00 0.26193766305E+00 0.26729246784E+00
 0.27065833878E+00 0.27264298923E+00 0.27195361348E+00 0.26704221484E+00 0.26033440512E+00
 0.25299294784E+00 0.24594000609E+00 0.23644444573E+00 0.22556749122E+00 0.21317193485E+00
 0.19958322404E+00 0.18319019965E+00 0.16573254492E+00 0.15074881438E+00 0.14013367828E+00
 0.13524969106E+00 0.13798277107E+00 0.14972851244E+00 0.16688768302E+00 0.18416311927E+00
 0.19891620190E+00 0.21349463807E+00 0.22617731067E+00 0.23562599103E+00 0.24453554569E+00
 0.25365274439E+00 0.28551161456E+00 0.29683516719E+00 0.30299178519E+00 0.30774918259E+00
 0.30829590591E+00 0.30484777023E+00 0.29509579898E+00 0.28498749409E+00 0.27210574835E+00
 0.25834946711E+00 0.24166639374E+00 0.22524981609E+00 0.20545988805E+00 0.18430149406E+00
 0.15879081206E+00 0.13682293928E+00 0.11959313501E+00 0.10993436413E+00 0.10796898079E+00
 0.11797740152E+00 0.13616720375E+00 0.15964681774E+00 0.18252508343E+00 0.20490243281E+00
 0.22536636000E+00 0.24352155929E+00 0.25726929042E+00 0.27223707638E+00 0.31111022348E+00
 0.32845322692E+00 0.34052258668E+00 0.34792175871E+00 0.35185969777E+00 0.34993894100E+00
 0.34110379843E+00 0.32679156723E+00 0.31118631650E+00 0.29249215595E+00 0.27027047966E+00
 0.24630379596E+00 0.22246914758E+00 0.19648679205E+00 0.16621107601E+00 0.13557575519E+00
 0.11151118481E+00 0.96118012105E-01 0.89372275807E-01 0.94083595301E-01 0.11152551197E+00
 0.13736630878E+00 0.16563142197E+00 0.19431760346E+00 0.22245956621E+00 0.24889609189E+00
 0.27107657868E+00 0.29108904357E+00 0.33656431097E+00 0.36101473039E+00 0.38081424722E+00
 0.39306810926E+00 0.40048831536E+00 0.40153962987E+00 0.39457976466E+00 0.37977321609E+00
 0.36049267375E+00 0.33787572825E+00 0.31147200903E+00 0.28145490656E+00 0.25060093907E+00
 0.21967183870E+00 0.18626494786E+00 0.14952894857E+00 0.11765378210E+00 0.94209828374E-01
 0.82200668178E-01 0.81390450353E-01 0.94862757162E-01 0.11949011463E+00 0.15135169358E+00
 0.18434994697E+00 0.21843426796E+00 0.25188166634E+00 0.28306873819E+00 0.30989943812E+00
 0.36058336002E+00 0.39263565735E+00 0.42037572194E+00 0.44049844594E+00 0.45306566518E+00
 0.45821021994E+00 0.45448276285E+00 0.43990219058E+00 0.41881679899E+00 0.39321017970E+00
 0.36295478900E+00 0.32754089402E+00 0.29058938523E+00 0.25349641333E+00 0.21666244981E+00
 0.17685244638E+00 0.13864217321E+00 0.10842211192E+00 0.88486539094E-01 0.80555931839E-01
 0.87611244314E-01 0.10958533427E+00 0.14104713912E+00 0.17699718780E+00 0.21476864063E+00
 0.25346181551E+00 0.29229335833E+00 0.32741500364E+00 0.38172773326E+00 0.42136766955E+00
 0.45724408878E+00 0.48650756749E+00 0.50504331605E+00 0.51615451811E+00 0.51649560823E+00
 0.50638997505E+00 0.48391466239E+00 0.45589437773E+00 0.42216309154E+00 0.38395097710E+00
 0.34066244171E+00 0.29777084937E+00 0.25504795980E+00 0.21364663762E+00 0.17137382661E+00
 0.13558783433E+00 0.10911700551E+00 0.94770023579E-01 0.92847653668E-01 0.10762490396E+00
 0.13592324996E+00 0.17266208845E+00 0.21212278982E+00 0.25460948387E+00 0.29822229542E+00
 0.34178820792E+00 0.39878190298E+00 0.44514561147E+00 0.48886532300E+00 0.52572354651E+00
 0.55434080702E+00 0.57239780067E+00 0.57968830518E+00 0.57348345394E+00 0.55455286250E+00
 0.52462563030E+00 0.48807939092E+00 0.44568998291E+00 0.39882075248E+00 0.34996977581E+00
 0.30180376942E+00 0.25538892914E+00 0.21137570867E+00 0.17167091301E+00 0.14044055878E+00
 0.11977733031E+00 0.11154867100E+00 0.11781918819E+00 0.13891514019E+00 0.17177199556E+00
 0.21137273737E+00 0.25464214179E+00 0.30201097147E+00 0.35115404594E+00 0.40925610602E+00
 0.46262807342E+00 0.51288772008E+00 0.55920154718E+00 0.59725754552E+00 0.62243705073E+00
 0.63560746295E+00 0.63673962030E+00 0.62365963217E+00 0.59682301763E+00 0.55884172529E+00
 0.51333708275E+00 0.46264947282E+00 0.40868353888E+00 0.35508103534E+00 0.30313468770E+00
 0.25483929425E+00 0.21151522657E+00 0.17646312122E+00 0.15156617414E+00 0.13792925980E+00
 0.13676493134E+00 0.15033820227E+00 0.17656239442E+00 0.21248706058E+00 0.25477129582E+00
 0.30279809591E+00 0.35564773569E+00 0.41262092721E+00 0.47160154546E+00 0.52856068162E+00
 0.58315083195E+00 0.62813216732E+00 0.66013829121E+00 0.68001064061E+00 0.68659315132E+00
 0.68065818921E+00 0.66124459267E+00 0.62870915467E+00 0.58304983867E+00 0.52889285368E+00
 0.47137837200E+00 0.41259690048E+00 0.35554028105E+00 0.30190137686E+00 0.25442276686E+00
 0.21463315216E+00 0.18469057736E+00 0.16634691655E+00 0.16047770802E+00 0.16676791342E+00
 0.18581337915E+00 0.21572626978E+00 0.25459669335E+00 0.30164177207E+00 0.35533552789E+00
 0.40889842966E+00 0.47142065166E+00 0.53423074286E+00 0.59559077845E+00 0.64686610243E+00
 0.68666255734E+00 0.71506319391E+00 0.72995458317E+00 0.72909060669E+00 0.71404268163E+00
 0.68651630271E+00 0.64770392118E+00 0.59553828327E+00 0.53413622478E+00 0.47163331818E+00
 0.40945516587E+00 0.35103521968E+00 0.29814378689E+00 0.25382104418E+00 0.21887267164E+00
 0.19457988618E+00 0.18236595226E+00 0.18349391581E+00 0.19599461472E+00 0.21954892928E+00
 0.25369033551E+00 0.29801617571E+00 0.35059503072E+00 0.39873625046E+00 0.46240263187E+00
 0.52866084629E+00 0.59560252910E+00 0.65300450959E+00 0.69969242801E+00 0.73727137360E+00
 0.76061090685E+00 0.76824539647E+00 0.75962243440E+00 0.73637229669E+00 0.69956624103E+00
 0.65314835836E+00 0.59500215993E+00 0.52868243520E+00 0.46290047953E+00 0.39870760642E+00
 0.34148839968E+00 0.29227438516E+00 0.25242561188E+00 0.22239377639E+00 0.20421539170E+00
 0.19825163248E+00 0.20491040147E+00 0.22237910023E+00 0.25121811230E+00 0.29163654589E+00
 0.34152304491E+00 0.38320741079E+00 0.44514369307E+00 0.51314484995E+00 0.58304430556E+00
 0.64743459434E+00 0.69912022355E+00 0.74445778285E+00 0.77663814012E+00 0.79320922990E+00
 0.79138433152E+00 0.77573571291E+00 0.74451415801E+00 0.70024420180E+00 0.64600585896E+00
 0.58297359359E+00 0.51295659681E+00 0.44606889659E+00 0.38089215364E+00 0.32753323739E+00
 0.28311038494E+00 0.24958501125E+00 0.22426401485E+00 0.21314279029E+00 0.21284131199E+00
 0.22517734597E+00 0.24713306122E+00 0.28221582246E+00 0.32753010484E+00 0.36196639225E+00
 0.42193405723E+00 0.48793681389E+00 0.55918474427E+00 0.62864160898E+00 0.68622509791E+00
 0.73579952258E+00 0.77518876234E+00 0.80041760476E+00 0.80840208702E+00 0.79985601914E+00
 0.77591686834E+00 0.73757348763E+00 0.68636638931E+00 0.62751402147E+00 0.55940583368E+00
 0.48916726179E+00 0.42164171999E+00 0.35972852275E+00 0.31000039988E+00 0.27139464596E+00
 0.24345560629E+00 0.22540484839E+00 0.22034364701E+00 0.22606917304E+00 0.24241372761E+00
 0.27000474378E+00 0.31079127438E+00 0.33730955528E+00 0.39321988539E+00 0.45625613441E+00
 0.52536564808E+00 0.59732287879E+00 0.66152823058E+00 0.71418950762E+00 0.76002946900E+00
 0.79148436188E+00 0.80774436266E+00 0.80696638512E+00 0.79235030888E+00 0.76089311044E+00
 0.71563102518E+00 0.65991417927E+00 0.59686279574E+00 0.52642540150E+00 0.45785464295E+00
 0.39194760828E+00 0.33634229837E+00 0.29131701808E+00 0.25799893967E+00 0.23515914497E+00
 0.22480115906E+00 0.22533212872E+00 0.23664949881E+00 0.25750827519E+00 0.29162108546E+00
 0.31110639377E+00 0.36106393649E+00 0.41954360656E+00 0.48464697410E+00 0.55441314358E+00
 0.62354981164E+00 0.68085586281E+00 0.72928061328E+00 0.76818213671E+00 0.79222878492E+00
 0.79919183589E+00 0.79056928024E+00 0.76822088891E+00 0.73056982148E+00 0.68042369762E+00
 0.62194921011E+00 0.55441540958E+00 0.48675541201E+00 0.42047629459E+00 0.36035374328E+00
 0.31108407408E+00 0.27287349391E+00 0.24458071403E+00 0.22805099289E+00 0.22362080960E+00
 0.22971156121E+00 0.24536619713E+00 0.27193569201E+00 0.28526024989E+00 0.32770321453E+00
 0.38059442545E+00 0.43989684663E+00 0.50546640455E+00 0.57278563259E+00 0.63656661383E+00
 0.68730190489E+00 0.73041878734E+00 0.76056686640E+00 0.77651246068E+00 0.77513495588E+00
 0.75978721080E+00 0.72976016865E+00 0.68802224321E+00 0.63485655941E+00 0.57236114734E+00
 0.50483468502E+00 0.44139898996E+00 0.37992449392E+00 0.32856943732E+00 0.28550294904E+00
 0.25446615188E+00 0.23178522856E+00 0.22221652858E+00 0.22243933380E+00 0.23354142141E+00
 0.25305872484E+00 0.26089322560E+00 0.29598065713E+00 0.34101694888E+00 0.39387908045E+00
 0.45346991320E+00 0.51599512223E+00 0.57915411000E+00 0.63517464742E+00 0.68008064088E+00
 0.71555701836E+00 0.73794034133E+00 0.74457086645E+00 0.73647177649E+00 0.71484523612E+00
 0.68095649988E+00 0.63610377981E+00 0.57877568502E+00 0.51590623296E+00 0.45339703168E+00
 0.39303931812E+00 0.34022594934E+00 0.29681525812E+00 0.26231057799E+00 0.23701830115E+00
 0.22171175698E+00 0.21707547299E+00 0.22242057066E+00 0.23663007641E+00 0.23994827219E+00
 0.26704962637E+00 0.30407336666E+00 0.34917145617E+00 0.40125860344E+00 0.45846707015E+00
 0.51649931668E+00 0.57301295336E+00 0.62204224698E+00 0.65965838506E+00 0.68666141708E+00
 0.70085139758E+00 0.70020031417E+00 0.68638110263E+00 0.66067970556E+00 0.62324179787E+00
 0.57343465969E+00 0.51624488880E+00 0.45881921055E+00 0.40077057197E+00 0.34799993721E+00
 0.30262616928E+00 0.26762724455E+00 0.24052589436E+00 0.22238946465E+00 0.21316859711E+00
 0.21351294702E+00 0.22224008395E+00 0.22261564262E+00 0.24254145110E+00 0.27121848107E+00
 0.30793440709E+00 0.35180787425E+00 0.40112609750E+00 0.45433045602E+00 0.50580035304E+00
 0.55449849763E+00 0.59642743043E+00 0.62750167526E+00 0.64626744930E+00 0.65306587282E+00
 0.64670552001E+00 0.62798313310E+00 0.59701933755E+00 0.55428870909E+00 0.50624394970E+00
 0.45481040798E+00 0.40182131707E+00 0.35184233712E+00 0.30742287399E+00 0.27067880652E+00
 0.24256570976E+00 0.22261969263E+00 0.21053761319E+00 0.20684747122E+00 0.21080133913E+00
 0.20914748846E+00 0.22290079046E+00 0.24422060057E+00 0.27265057937E+00 0.30783651506E+00
 0.34870892651E+00 0.39380004383E+00 0.44136856627E+00 0.48602115238E+00 0.52566792997E+00
 0.55903781278E+00 0.58301341850E+00 0.59501534361E+00 0.59516138491E+00 0.58310896293E+00
 0.55879015704E+00 0.52483713648E+00 0.48471693998E+00 0.44052418980E+00 0.39469107473E+00
 0.34993548674E+00 0.30802910058E+00 0.27264479772E+00 0.24386216111E+00 0.22276800865E+00
 0.20878429285E+00 0.20205821884E+00 0.20217206835E+00 0.19960279810E+00 0.20826956270E+00
 0.22316922342E+00 0.24417697289E+00 0.27134936958E+00 0.30344652582E+00 0.34027142357E+00
 0.37907962059E+00 0.41975952306E+00 0.45750072166E+00 0.48933198751E+00 0.51313516527E+00
 0.52885251994E+00 0.53388985806E+00 0.52876064687E+00 0.51326085417E+00 0.48894362261E+00
 0.45653171836E+00 0.41854434024E+00 0.37915104704E+00 0.34063607449E+00 0.30458849896E+00
 0.27188891940E+00 0.24452207451E+00 0.22324541857E+00 0.20809872407E+00 0.19944339408E+00
 0.19653756677E+00 0.19388023942E+00 0.19866192184E+00 0.20833759310E+00 0.22309715085E+00
 0.24294017768E+00 0.26760841873E+00 0.29592589734E+00 0.32766401534E+00 0.35982202207E+00
 0.39190810664E+00 0.42181065955E+00 0.44660765989E+00 0.46317560193E+00 0.47169679855E+00
 0.47158286902E+00 0.46316539210E+00 0.44644761160E+00 0.42201608248E+00 0.39268534842E+00
 0.35997922452E+00 0.32678031155E+00 0.29517234195E+00 0.26731865884E+00 0.24306958190E+00
 0.22334149264E+00 0.20848836920E+00 0.19860809637E+00 0.19384476512E+00 0.25844680255E+00
 0.26144657662E+00 0.27041242580E+00 0.28590110579E+00 0.30827999893E+00 0.33758982434E+00
 0.37325688752E+00 0.41339637987E+00 0.45677550577E+00 0.50047251906E+00 0.54142989947E+00
 0.57698123504E+00 0.60532231108E+00 0.62277135866E+00 0.62846479732E+00 0.62245072224E+00
 0.60531826414E+00 0.57855823652E+00 0.54291257817E+00 0.50114810898E+00 0.45679342719E+00
 0.41304540475E+00 0.37216776467E+00 0.33709703895E+00 0.30829261251E+00 0.28617254173E+00
 0.27064804537E+00 0.26148348965E+00 0.26138474928E+00 0.26150750970E+00 0.26564434779E+00
 0.27413764501E+00 0.28750117459E+00 0.30649491501E+00 0.33069804632E+00 0.36010071331E+00
 0.39209917699E+00 0.42528356776E+00 0.45754167703E+00 0.48699361694E+00 0.51049607345E+00
 0.52787743433E+00 0.53673125316E+00 0.53637612149E+00 0.52725042110E+00 0.51026375873E+00
 0.48705634823E+00 0.45854581172E+00 0.42587938553E+00 0.39185862632E+00 0.35945241224E+00
 0.33024889667E+00 0.30615175553E+00 0.28766103972E+00 0.27418028785E+00 0.26557408673E+00
 0.27036184535E+00 0.26938066836E+00 0.27060767513E+00 0.27424073556E+00 0.28068511860E+00
 0.29082656572E+00 0.30492981422E+00 0.32254481070E+00 0.34417305775E+00 0.36806138605E+00
 0.39133519677E+00 0.41182656188E+00 0.42991924834E+00 0.44395526379E+00 0.45289165170E+00
 0.45594146856E+00 0.45252236656E+00 0.44371828348E+00 0.42926284663E+00 0.41091971263E+00
 0.39021011450E+00 0.36816293122E+00 0.34506957354E+00 0.32367076603E+00 0.30510857833E+00
 0.29094330399E+00 0.28086277920E+00 0.27419603893E+00 0.28587455015E+00 0.28516837675E+00
 0.28560747225E+00 0.28625479131E+00 0.28781229052E+00 0.29123408040E+00 0.29702348189E+00
 0.30524392704E+00 0.31516602232E+00 0.32755093444E+00 0.34168608237E+00 0.35496383893E+00
 0.36541268750E+00 0.37323440830E+00 0.37867730883E+00 0.38132803491E+00 0.38152990461E+00
 0.37866381622E+00 0.37349287172E+00 0.36470184582E+00 0.35308800185E+00 0.34055667657E+00
 0.32873802192E+00 0.31637237467E+00 0.30539632074E+00 0.29680889890E+00 0.29128723935E+00
 0.28777715727E+00 0.30832652766E+00 0.30941594655E+00 0.31028205049E+00 0.31002729279E+00
 0.30828059755E+00 0.30629545132E+00 0.30567346651E+00 0.30552226496E+00 0.30641925960E+00
 0.30847406328E+00 0.31147542364E+00 0.31466525460E+00 0.31730382339E+00 0.31730336598E+00
 0.31696599109E+00 0.31658168312E+00 0.31622220621E+00 0.31687667901E+00 0.31797431876E+00
 0.31843202619E+00 0.31724779697E+00 0.31444012043E+00 0.31138586362E+00 0.30905376483E+00
 0.30643732213E+00 0.30490846746E+00 0.30542871406E+00 0.30696717588E+00 0.33778959180E+00
 0.34236932865E+00 0.34521718306E+00 0.34592575793E+00 0.34287305409E+00 0.33702175041E+00
 0.33029155112E+00 0.32441745508E+00 0.31691090545E+00 0.30891680605E+00 0.30168205901E+00
 0.29586613000E+00 0.28784474115E+00 0.27880017009E+00 0.27102323258E+00 0.26548923902E+00
 0.26187038285E+00 0.26100630505E+00 0.26506146899E+00 0.27263776086E+00 0.28053874437E+00
 0.28793437629E+00 0.29512080168E+00 0.30218161932E+00 0.30902973371E+00 0.31546418595E+00
 0.32285335312E+00 0.33104977629E+00 0.37353869639E+00 0.38366731713E+00 0.39002903669E+00
 0.39314840964E+00 0.39130427570E+00 0.38332562577E+00 0.37174552528E+00 0.35863008300E+00
 0.34497267117E+00 0.32931153599E+00 0.31218126397E+00 0.29548468157E+00 0.27873018408E+00
 0.25961215640E+00 0.24274865765E+00 0.23009467800E+00 0.22139306869E+00 0.21711390696E+00
 0.21913827350E+00 0.22893246257E+00 0.24395765230E+00 0.26057136337E+00 0.27806086858E+00
 0.29586039196E+00 0.31272316852E+00 0.32831620577E+00 0.34356670827E+00 0.35939010673E+00
 0.41365585601E+00 0.43234755431E+00 0.44393607768E+00 0.45142518063E+00 0.45221243789E+00
 0.44588062512E+00 0.43076846156E+00 0.41304080331E+00 0.39117580013E+00 0.36733203424E+00
 0.34064578970E+00 0.31565648459E+00 0.28867379281E+00 0.26072995640E+00 0.23297952475E+00
 0.21128957074E+00 0.19544254102E+00 0.18633958665E+00 0.18437771435E+00 0.19360495777E+00
 0.21085171850E+00 0.23379752050E+00 0.25897273788E+00 0.28793364210E+00 0.31583709306E+00
 0.34257705275E+00 0.36648606174E+00 0.39106520242E+00 0.45683722229E+00 0.48521405409E+00
 0.50565149209E+00 0.51826713793E+00 0.52394029772E+00 0.52028639175E+00 0.50608268021E+00
 0.48334680758E+00 0.45678613726E+00 0.42573912394E+00 0.38982086401E+00 0.35232110169E+00
 0.31726939772E+00 0.28029384599E+00 0.24320172226E+00 0.21026774230E+00 0.18536360981E+00
 0.16972835528E+00 0.16279871851E+00 0.16758996665E+00 0.18537310556E+00 0.21199189744E+00
 0.24263146209E+00 0.27800561678E+00 0.31725885446E+00 0.35513707022E+00 0.39054066648E+00
 0.42413657384E+00 0.50019203297E+00 0.53966989629E+00 0.57162905959E+00 0.59246239073E+00
 0.60453763667E+00 0.60557753396E+00 0.59430467248E+00 0.57072686677E+00 0.53937918396E+00
 0.50131860724E+00 0.45843446704E+00 0.41093199001E+00 0.36415191803E+00 0.31796961067E+00
 0.27226094804E+00 0.22864471115E+00 0.19335547572E+00 0.16770653086E+00 0.15464899616E+00
 0.15373786787E+00 0.16847595202E+00 0.19525444637E+00 0.23071083681E+00 0.27012191748E+00
 0.31676107261E+00 0.36544230593E+00 0.41261947107E+00 0.45682941943E+00 0.54110049918E+00
 0.59252913156E+00 0.63713246937E+00 0.66964713576E+00 0.68985464467E+00 0.69772799005E+00
 0.69132825946E+00 0.66872050667E+00 0.63508448303E+00 0.59339481521E+00 0.54380204757E+00
 0.48693210140E+00 0.42921877654E+00 0.37311211277E+00 0.31808871047E+00 0.26571038585E+00
 0.21978429069E+00 0.18479007532E+00 0.16187410426E+00 0.15285260431E+00 0.16094326281E+00
 0.18595819361E+00 0.22235989561E+00 0.26578355551E+00 0.31613071281E+00 0.37305324637E+00
 0.43098103740E+00 0.48697501428E+00 0.57690151208E+00 0.64060837011E+00 0.69770611131E+00
 0.74459482188E+00 0.77652586619E+00 0.79431076343E+00 0.79471089706E+00 0.77793914209E+00
 0.74252412452E+00 0.69618173430E+00 0.64105879596E+00 0.57948874730E+00 0.51059411473E+00
 0.44382908995E+00 0.37887129346E+00 0.31746400116E+00 0.26201309214E+00 0.21748133684E+00
 0.18555639839E+00 0.16832471403E+00 0.16632214721E+00 0.18399455905E+00 0.21786243321E+00
 0.26327406211E+00 0.31600869937E+00 0.37833991443E+00 0.44438838044E+00 0.51173747868E+00
 0.60537555616E+00 0.67992098244E+00 0.75048006742E+00 0.81182630966E+00 0.85696206689E+00
 0.88482382739E+00 0.89555297180E+00 0.88598044998E+00 0.85681234836E+00 0.81021342073E+00
 0.75024328307E+00 0.68027563261E+00 0.60533050632E+00 0.52743846718E+00 0.45258236256E+00
 0.38141229393E+00 0.31618826871E+00 0.26231621886E+00 0.22165430828E+00 0.19554757939E+00
 0.18537830392E+00 0.19347985902E+00 0.22008180995E+00 0.26241596252E+00 0.31624880777E+00
 0.38047683221E+00 0.45286788178E+00 0.52858527576E+00 0.62294580269E+00 0.70853878757E+00
 0.79188246628E+00 0.86556562918E+00 0.92421517194E+00 0.96668169106E+00 0.98917001277E+00
 0.99058353388E+00 0.96792917244E+00 0.92444798078E+00 0.86481889933E+00 0.79234736805E+00
 0.70871584290E+00 0.62224292601E+00 0.53647678444E+00 0.45555246824E+00 0.38067243437E+00
 0.31539626932E+00 0.26516813219E+00 0.23098652277E+00 0.21260640396E+00 0.21149000764E+00
 0.22953467590E+00 0.26531528924E+00 0.31636351485E+00 0.38061959761E+00 0.45530274567E+00
 0.53700084670E+00 0.62864508281E+00 0.72359054995E+00 0.81784544108E+00 0.90319133413E+00
 0.97757312199E+00 0.10359373144E+01 0.10725557329E+01 0.10848400585E+01 0.10731126934E+01
 0.10368433256E+01 0.97808021335E+00 0.90329972586E+00 0.81789678133E+00 0.72354160736E+00
 0.62848111656E+00 0.53708601307E+00 0.45270553431E+00 0.37817172138E+00 0.31596811996E+00
 0.27053197746E+00 0.24334034036E+00 0.23462760365E+00 0.24384999133E+00 0.27181238896E+00
 0.31711578743E+00 0.37830468422E+00 0.45248910284E+00 0.53671641412E+00 0.62248372254E+00
 0.72346204724E+00 0.82686206863E+00 0.92320930437E+00 0.10116505041E+01 0.10850818358E+01
 0.11355574603E+01 0.11610778483E+01 0.11602371706E+01 0.11346408464E+01 0.10851055729E+01
 0.10124446993E+01 0.92341092772E+00 0.82659960840E+00 0.72380686896E+00 0.62294393523E+00
 0.52850481949E+00 0.44426609773E+00 0.37344410846E+00 0.31722149075E+00 0.27825803956E+00
 0.25882292048E+00 0.25992677919E+00 0.27970119454E+00 0.31780477361E+00 0.37334747442E+00
 0.44419082295E+00 0.52798413264E+00 0.60534316152E+00 0.70844152074E+00 0.81776130702E+00
 0.92336039720E+00 0.10232745370E+01 0.11096165248E+01 0.11739626652E+01 0.12128147248E+01
 0.12253680319E+01 0.12116826777E+01 0.11727868960E+01 0.11095619555E+01 0.10231700428E+01
 0.92279878296E+00 0.81773750252E+00 0.70907880689E+00 0.60529406358E+00 0.51135099892E+00
 0.43105211213E+00 0.36596687653E+00 0.31724793464E+00 0.28716544224E+00 0.27738256839E+00
 0.28801286337E+00 0.31729341742E+00 0.36481307247E+00 0.43022801966E+00 0.51145369943E+00
 0.57866450871E+00 0.67968560863E+00 0.79209617911E+00 0.90323104920E+00 0.10121495355E+01
 0.11089374690E+01 0.11861437233E+01 0.12391270578E+01 0.12664152002E+01 0.12643627263E+01
 0.12383766578E+01 0.11861666192E+01 0.11103875062E+01 0.10105577299E+01 0.90326721447E+00
 0.79177318372E+00 0.68072386755E+00 0.57623407369E+00 0.48696522988E+00 0.41269835264E+00
 0.35584701705E+00 0.31466959741E+00 0.29549985796E+00 0.29511639118E+00 0.31563383159E+00
 0.35306771932E+00 0.41176321738E+00 0.48704348042E+00 0.54270826469E+00 0.64083579599E+00
 0.75009673738E+00 0.86525392854E+00 0.97810210651E+00 0.10847546806E+01 0.11723794618E+01
 0.12377134853E+01 0.12790298479E+01 0.12928825660E+01 0.12783204879E+01 0.12384952191E+01
 0.11740449267E+01 0.10849264905E+01 0.97681486671E+00 0.86551413009E+00 0.75146469911E+00
 0.64044418661E+00 0.54041427005E+00 0.45678939233E+00 0.39105577900E+00 0.34237731859E+00
 0.31201436173E+00 0.30255442221E+00 0.31272114984E+00 0.34139700662E+00 0.38966519689E+00
 0.45761160676E+00 0.50083010128E+00 0.59341966484E+00 0.69657447211E+00 0.81097437751E+00
 0.92483950988E+00 0.10371173057E+01 0.11347220769E+01 0.12120291134E+01 0.12645310582E+01
 0.12919822396E+01 0.12912151985E+01 0.12656061089E+01 0.12129409021E+01 0.11364900574E+01
 0.10352623961E+01 0.92450563743E+00 0.81192562847E+00 0.69846693489E+00 0.59187876911E+00
 0.49992472227E+00 0.42434660950E+00 0.36727087121E+00 0.32777629356E+00 0.30917085431E+00
 0.30961822571E+00 0.32951008880E+00 0.36644812194E+00 0.42474514147E+00 0.45674842689E+00
 0.53987413622E+00 0.63585911611E+00 0.74324937464E+00 0.85676106071E+00 0.96785605884E+00
 0.10734994545E+01 0.11603922862E+01 0.12253920288E+01 0.12654527276E+01 0.12777246987E+01
 0.12635079952E+01 0.12253209834E+01 0.11618051623E+01 0.10729068125E+01 0.96621104649E+00
 0.85672905759E+00 0.74546059917E+00 0.63686977185E+00 0.53911087390E+00 0.45671526282E+00
 0.39184448930E+00 0.34357481581E+00 0.31499416565E+00 0.30635860602E+00 0.31674346060E+00
 0.34443247904E+00 0.39097364262E+00 0.41337166524E+00 0.48429014354E+00 0.57165409195E+00
 0.66872520103E+00 0.77693430139E+00 0.88527766054E+00 0.99019091640E+00 0.10855815343E+01
 0.11615922714E+01 0.12124945724E+01 0.12391055263E+01 0.12376181477E+01 0.12119331732E+01
 0.11608999947E+01 0.10863186463E+01 0.98850105805E+00 0.88472201851E+00 0.77639347435E+00
 0.67026384065E+00 0.57098330329E+00 0.48516393094E+00 0.41376063684E+00 0.36015335347E+00
 0.32215611871E+00 0.30478101542E+00 0.30505425099E+00 0.32399007947E+00 0.35864023610E+00
 0.37239515083E+00 0.43161379657E+00 0.50605233462E+00 0.59345113446E+00 0.69036680440E+00
 0.79401911479E+00 0.89517147011E+00 0.98872469321E+00 0.10726653212E+01 0.11363153416E+01
 0.11746704532E+01 0.11861882992E+01 0.11730816149E+01 0.11353044209E+01 0.10735815616E+01
 0.98979154957E+00 0.89463559649E+00 0.79402237410E+00 0.69023118922E+00 0.59258484655E+00
 0.50517728407E+00 0.43242432025E+00 0.37386760644E+00 0.33108769867E+00 0.30477785599E+00
 0.29665827083E+00 0.30554894637E+00 0.33069249800E+00 0.33730229085E+00 0.38333327592E+00
 0.44508119654E+00 0.51951954946E+00 0.60524077295E+00 0.69810475983E+00 0.79459952762E+00
 0.88545803959E+00 0.96629015026E+00 0.10349455202E+01 0.10852613126E+01 0.11108271786E+01
 0.11102308704E+01 0.10847593106E+01 0.10365301885E+01 0.96738544547E+00 0.88589201866E+00
 0.79442412584E+00 0.69838547664E+00 0.60482914084E+00 0.51824891213E+00 0.44364643949E+00
 0.38396268163E+00 0.33792017718E+00 0.30679379303E+00 0.29101971262E+00 0.29138551060E+00
 0.30660119538E+00 0.30831815618E+00 0.34249098056E+00 0.39059566147E+00 0.45171484444E+00
 0.52398171182E+00 0.60507757307E+00 0.69126689888E+00 0.77733424490E+00 0.85682705049E+00
 0.92403226865E+00 0.97686343462E+00 0.10108429519E+01 0.10232940105E+01 0.10114896711E+01
 0.97743333432E+00 0.92409705941E+00 0.85694476498E+00 0.77773318890E+00 0.69170581736E+00
 0.60586906344E+00 0.52393494105E+00 0.45115130840E+00 0.38997153949E+00 0.34255530601E+00
 0.30828483971E+00 0.28765948723E+00 0.28100948163E+00 0.28797471833E+00 0.28614678732E+00
 0.30969258098E+00 0.34558132138E+00 0.39312155294E+00 0.45158574816E+00 0.51906918566E+00
 0.59336113355E+00 0.67028215703E+00 0.74472015514E+00 0.81116994686E+00 0.86509011729E+00
 0.90327967231E+00 0.92275014619E+00 0.92276169201E+00 0.90311372313E+00 0.86504004561E+00
 0.81083857262E+00 0.74277904221E+00 0.66963419080E+00 0.59427575228E+00 0.52035490819E+00
 0.45187470158E+00 0.39311506136E+00 0.34522094216E+00 0.30955630648E+00 0.28579450392E+00
 0.27412921441E+00 0.27423366689E+00 0.27059772935E+00 0.28533643976E+00 0.31035434609E+00
 0.34555500814E+00 0.39074282624E+00 0.44438448755E+00 0.50523830032E+00 0.57007137921E+00
 0.63607194428E+00 0.69805116157E+00 0.75157357659E+00 0.79202433867E+00 0.81792735423E+00
 0.82649244595E+00 0.81805685472E+00 0.79238716643E+00 0.75060944901E+00 0.69690093762E+00
 0.63522123965E+00 0.56979282965E+00 0.50579326027E+00 0.44547554069E+00 0.39133701611E+00
 0.34589683749E+00 0.31043344437E+00 0.28512570283E+00 0.27041258714E+00 0.26552225917E+00
 0.26142050650E+00 0.26933719577E+00 0.28540876638E+00 0.30988146378E+00 0.34291571722E+00
 0.38395764442E+00 0.43156968245E+00 0.48420869050E+00 0.53856919169E+00 0.59187151384E+00
 0.64071712882E+00 0.68131279082E+00 0.70931625798E+00 0.72376268922E+00 0.72355774805E+00
 0.70897979396E+00 0.68124963214E+00 0.64134534585E+00 0.59256174541E+00 0.53865974263E+00
 0.48343797842E+00 0.43073772050E+00 0.38367996232E+00 0.34300621515E+00 0.31017574995E+00
 0.28557833602E+00 0.26931515530E+00 0.26135221744E+00 0.34344544773E+00 0.34860714441E+00
 0.36410045297E+00 0.39049230572E+00 0.42814625358E+00 0.47669703836E+00 0.53517421928E+00
 0.60033820843E+00 0.67065029380E+00 0.74097205529E+00 0.80704295540E+00 0.86485944408E+00
 0.91088729559E+00 0.93975957625E+00 0.94931385973E+00 0.93919821601E+00 0.91080272563E+00
 0.86673239000E+00 0.80873953911E+00 0.74177530581E+00 0.67053737166E+00 0.60014141548E+00
 0.53394910947E+00 0.47615537209E+00 0.42815078147E+00 0.39081065832E+00 0.36437860655E+00
 0.34863123936E+00 0.34854656260E+00 0.34866629547E+00 0.35581389065E+00 0.37040746183E+00
 0.39314477212E+00 0.42488492033E+00 0.46490386704E+00 0.51304072199E+00 0.56534041065E+00
 0.62021104552E+00 0.67415013702E+00 0.72376807761E+00 0.76484880285E+00 0.79513831125E+00
 0.81084073106E+00 0.81056922571E+00 0.79456614560E+00 0.76452912987E+00 0.72391643052E+00
 0.67491329451E+00 0.62080940517E+00 0.56515127820E+00 0.51225124420E+00 0.46452058382E+00
 0.42453283956E+00 0.39331388334E+00 0.37043686023E+00 0.35573729264E+00 0.36403172128E+00
 0.36227724289E+00 0.36427973309E+00 0.37053360961E+00 0.38156875797E+00 0.39866215448E+00