   3   3   0   0
  0.4389436E+02  0.3183861E-09  0.3183861E-09  0.1500000E-08  0.5000000E-15
  1.000000000000000E-004
  CAR 
 unknown system                          
      9.00000000    -11.00000000 2001     -0.52999999      1.00000000
    -11.000  0.0000E+00  0.1200E+02
    -10.990  0.0000E+00  0.1200E+02
    -10.980  0.0000E+00  0.1200E+02
    -10.970  0.0000E+00  0.1200E+02
    -10.960  0.0000E+00  0.1200E+02
    -10.950  0.0000E+00  0.1200E+02
    -10.940  0.0000E+00  0.1200E+02
    -10.930  0.0000E+00  0.1200E+02
    -10.920  0.0000E+00  0.1200E+02
    -10.910  0.0000E+00  0.1200E+02
    -10.900  0.0000E+00  0.1200E+02
    -10.890  0.0000E+00  0.1200E+02
    -10.880  0.0000E+00  0.1200E+02
    -10.870  0.0000E+00  0.1200E+02
    -10.860  0.0000E+00  0.1200E+02
    -10.850  0.0000E+00  0.1200E+02
    -10.840  0.0000E+00  0.1200E+02
    -10.830  0.0000E+00  0.1200E+02
    -10.820  0.0000E+00  0.1200E+02
    -10.810  0.0000E+00  0.1200E+02
    -10.800  0.0000E+00  0.1200E+02
    -10.790  0.0000E+00  0.1200E+02
    -10.780  0.0000E+00  0.1200E+02
    -10.770  0.0000E+00  0.1200E+02
    -10.760  0.0000E+00  0.1200E+02
    -10.750  0.0000E+00  0.1200E+02
    -10.740  0.0000E+00  0.1200E+02
    -10.730  0.0000E+00  0.1200E+02
    -10.720  0.0000E+00  0.1200E+02
    -10.710  0.0000E+00  0.1200E+02
    -10.700  0.0000E+00  0.1200E+02
    -10.690  0.0000E+00  0.1200E+02
    -10.680  0.0000E+00  0.1200E+02
    -10.670  0.0000E+00  0.1200E+02
    -10.660  0.0000E+00  0.1200E+02
    -10.650  0.0000E+00  0.1200E+02
    -10.640  0.0000E+00  0.1200E+02
    -10.630  0.0000E+00  0.1200E+02
    -10.620  0.0000E+00  0.1200E+02
    -10.610  0.0000E+00  0.1200E+02
    -10.600  0.0000E+00  0.1200E+02
    -10.590  0.0000E+00  0.1200E+02
    -10.580  0.0000E+00  0.1200E+02
    -10.570  0.0000E+00  0.1200E+02
    -10.560  0.0000E+00  0.1200E+02
    -10.550  0.0000E+00  0.1200E+02
    -10.540  0.0000E+00  0.1200E+02
    -10.530  0.0000E+00  0.1200E+02
    -10.520  0.0000E+00  0.1200E+02
    -10.510  0.0000E+00  0.1200E+02
    -10.500  0.0000E+00  0.1200E+02
    -10.490  0.0000E+00  0.1200E+02
    -10.480  0.0000E+00  0.1200E+02
    -10.470  0.0000E+00  0.1200E+02
    -10.460  0.0000E+00  0.1200E+02
    -10.450  0.0000E+00  0.1200E+02
    -10.440  0.0000E+00  0.1200E+02
    -10.430  0.0000E+00  0.1200E+02
    -10.420  0.0000E+00  0.1200E+02
    -10.410  0.0000E+00  0.1200E+02
    -10.400  0.0000E+00  0.1200E+02
    -10.390  0.0000E+00  0.1200E+02
    -10.380  0.0000E+00  0.1200E+02
    -10.370  0.0000E+00  0.1200E+02
    -10.360  0.0000E+00  0.1200E+02
    -10.350  0.0000E+00  0.1200E+02
    -10.340  0.0000E+00  0.1200E+02
    -10.330  0.0000E+00  0.1200E+02
    -10.320  0.0000E+00  0.1200E+02
    -10.310  0.0000E+00  0.1200E+02
    -10.300  0.0000E+00  0.1200E+02
    -10.290  0.0000E+00  0.1200E+02
    -10.280  0.0000E+00  0.1200E+02
    -10.270  0.0000E+00  0.1200E+02
    -10.260  0.0000E+00  0.1200E+02
    -10.250  0.0000E+00  0.1200E+02
    -10.240  0.0000E+00  0.1200E+02
    -10.230  0.0000E+00  0.1200E+02
    -10.220  0.0000E+00  0.1200E+02
    -10.210  0.0000E+00  0.1200E+02
    -10.200  0.0000E+00  0.1200E+02
    -10.190  0.0000E+00  0.1200E+02
    -10.180  0.0000E+00  0.1200E+02
    -10.170  0.0000E+00  0.1200E+02
    -10.160  0.0000E+00  0.1200E+02
    -10.150  0.0000E+00  0.1200E+02
    -10.140  0.0000E+00  0.1200E+02
    -10.130  0.0000E+00  0.1200E+02
    -10.120  0.0000E+00  0.1200E+02
    -10.110  0.0000E+00  0.1200E+02
    -10.100  0.0000E+00  0.1200E+02
    -10.090  0.0000E+00  0.1200E+02
    -10.080  0.0000E+00  0.1200E+02
    -10.070  0.0000E+00  0.1200E+02
    -10.060  0.0000E+00  0.1200E+02
    -10.050  0.0000E+00  0.1200E+02
    -10.040  0.0000E+00  0.1200E+02
    -10.030  0.0000E+00  0.1200E+02
    -10.020  0.0000E+00  0.1200E+02
    -10.010  0.0000E+00  0.1200E+02
    -10.000  0.0000E+00  0.1200E+02
     -9.990  0.0000E+00  0.1200E+02
     -9.980  0.0000E+00  0.1200E+02
     -9.970  0.0000E+00  0.1200E+02
     -9.960  0.0000E+00  0.1200E+02
     -9.950  0.0000E+00  0.1200E+02
     -9.940  0.0000E+00  0.1200E+02
     -9.930  0.0000E+00  0.1200E+02
     -9.920  0.0000E+00  0.1200E+02
     -9.910  0.0000E+00  0.1200E+02
     -9.900  0.0000E+00  0.1200E+02
     -9.890  0.0000E+00  0.1200E+02
     -9.880  0.0000E+00  0.1200E+02
     -9.870  0.0000E+00  0.1200E+02
     -9.860  0.0000E+00  0.1200E+02
     -9.850  0.0000E+00  0.1200E+02
     -9.840  0.0000E+00  0.1200E+02
     -9.830  0.0000E+00  0.1200E+02
     -9.820  0.0000E+00  0.1200E+02
     -9.810  0.0000E+00  0.1200E+02
     -9.800  0.0000E+00  0.1200E+02
     -9.790  0.0000E+00  0.1200E+02
     -9.780  0.0000E+00  0.1200E+02
     -9.770  0.0000E+00  0.1200E+02
     -9.760  0.0000E+00  0.1200E+02
     -9.750  0.0000E+00  0.1200E+02
     -9.740  0.0000E+00  0.1200E+02
     -9.730  0.0000E+00  0.1200E+02
     -9.720  0.0000E+00  0.1200E+02
     -9.710  0.0000E+00  0.1200E+02
     -9.700  0.0000E+00  0.1200E+02
     -9.690  0.0000E+00  0.1200E+02
     -9.680  0.0000E+00  0.1200E+02
     -9.670  0.0000E+00  0.1200E+02
     -9.660  0.0000E+00  0.1200E+02
     -9.650  0.0000E+00  0.1200E+02
     -9.640  0.0000E+00  0.1200E+02
     -9.630  0.0000E+00  0.1200E+02
     -9.620  0.0000E+00  0.1200E+02
     -9.610  0.0000E+00  0.1200E+02
     -9.600  0.0000E+00  0.1200E+02
     -9.590  0.0000E+00  0.1200E+02
     -9.580  0.0000E+00  0.1200E+02
     -9.570  0.0000E+00  0.1200E+02
     -9.560  0.0000E+00  0.1200E+02
     -9.550  0.0000E+00  0.1200E+02
     -9.540  0.0000E+00  0.1200E+02
     -9.530  0.0000E+00  0.1200E+02
     -9.520  0.0000E+00  0.1200E+02
     -9.510  0.0000E+00  0.1200E+02
     -9.500  0.0000E+00  0.1200E+02
     -9.490  0.0000E+00  0.1200E+02
     -9.480  0.0000E+00  0.1200E+02
     -9.470  0.0000E+00  0.1200E+02
     -9.460  0.0000E+00  0.1200E+02
     -9.450  0.0000E+00  0.1200E+02
     -9.440  0.0000E+00  0.1200E+02
     -9.430  0.0000E+00  0.1200E+02
     -9.420  0.0000E+00  0.1200E+02
     -9.410  0.0000E+00  0.1200E+02
     -9.400  0.0000E+00  0.1200E+02
     -9.390  0.0000E+00  0.1200E+02
     -9.380  0.0000E+00  0.1200E+02
     -9.370  0.0000E+00  0.1200E+02
     -9.360  0.0000E+00  0.1200E+02
     -9.350  0.0000E+00  0.1200E+02
     -9.340  0.0000E+00  0.1200E+02
     -9.330  0.0000E+00  0.1200E+02
     -9.320  0.0000E+00  0.1200E+02
     -9.310  0.0000E+00  0.1200E+02
     -9.300  0.0000E+00  0.1200E+02
     -9.290  0.0000E+00  0.1200E+02
     -9.280  0.0000E+00  0.1200E+02
     -9.270  0.0000E+00  0.1200E+02
     -9.260  0.0000E+00  0.1200E+02
     -9.250  0.0000E+00  0.1200E+02
     -9.240  0.0000E+00  0.1200E+02
     -9.230  0.0000E+00  0.1200E+02
     -9.220  0.0000E+00  0.1200E+02
     -9.210  0.0000E+00  0.1200E+02
     -9.200  0.0000E+00  0.1200E+02
     -9.190  0.0000E+00  0.1200E+02
     -9.180  0.0000E+00  0.1200E+02
     -9.170  0.0000E+00  0.1200E+02
     -9.160  0.0000E+00  0.1200E+02
     -9.150  0.0000E+00  0.1200E+02
     -9.140  0.0000E+00  0.1200E+02
     -9.130  0.0000E+00  0.1200E+02
     -9.120  0.0000E+00  0.1200E+02
     -9.110  0.0000E+00  0.1200E+02
     -9.100  0.0000E+00  0.1200E+02
     -9.090  0.0000E+00  0.1200E+02
     -9.080  0.0000E+00  0.1200E+02
     -9.070  0.0000E+00  0.1200E+02
     -9.060  0.0000E+00  0.1200E+02
     -9.050  0.0000E+00  0.1200E+02
     -9.040  0.0000E+00  0.1200E+02
     -9.030  0.0000E+00  0.1200E+02
     -9.020  0.0000E+00  0.1200E+02
     -9.010  0.0000E+00  0.1200E+02
     -9.000  0.0000E+00  0.1200E+02
     -8.990  0.0000E+00  0.1200E+02
     -8.980  0.0000E+00  0.1200E+02
     -8.970  0.0000E+00  0.1200E+02
     -8.960  0.0000E+00  0.1200E+02
     -8.950  0.0000E+00  0.1200E+02
     -8.940  0.0000E+00  0.1200E+02
     -8.930  0.0000E+00  0.1200E+02
     -8.920  0.0000E+00  0.1200E+02
     -8.910  0.0000E+00  0.1200E+02
     -8.900  0.0000E+00  0.1200E+02
     -8.890  0.0000E+00  0.1200E+02
     -8.880  0.0000E+00  0.1200E+02
     -8.870  0.0000E+00  0.1200E+02
     -8.860  0.0000E+00  0.1200E+02
     -8.850  0.0000E+00  0.1200E+02
     -8.840  0.0000E+00  0.1200E+02
     -8.830  0.0000E+00  0.1200E+02
     -8.820  0.0000E+00  0.1200E+02
     -8.810  0.0000E+00  0.1200E+02
     -8.800  0.0000E+00  0.1200E+02
     -8.790  0.0000E+00  0.1200E+02
     -8.780  0.0000E+00  0.1200E+02
     -8.770  0.0000E+00  0.1200E+02
     -8.760  0.0000E+00  0.1200E+02
     -8.750  0.0000E+00  0.1200E+02
     -8.740  0.0000E+00  0.1200E+02
     -8.730  0.0000E+00  0.1200E+02
     -8.720  0.0000E+00  0.1200E+02
     -8.710  0.0000E+00  0.1200E+02
     -8.700  0.0000E+00  0.1200E+02
     -8.690  0.0000E+00  0.1200E+02
     -8.680  0.0000E+00  0.1200E+02
     -8.670  0.0000E+00  0.1200E+02
     -8.660  0.0000E+00  0.1200E+02
     -8.650  0.0000E+00  0.1200E+02
     -8.640  0.0000E+00  0.1200E+02
     -8.630  0.0000E+00  0.1200E+02
     -8.620  0.0000E+00  0.1200E+02
     -8.610  0.0000E+00  0.1200E+02
     -8.600  0.0000E+00  0.1200E+02
     -8.590  0.0000E+00  0.1200E+02
     -8.580  0.0000E+00  0.1200E+02
     -8.570  0.0000E+00  0.1200E+02
     -8.560  0.0000E+00  0.1200E+02
     -8.550  0.0000E+00  0.1200E+02
     -8.540  0.0000E+00  0.1200E+02
     -8.530  0.0000E+00  0.1200E+02
     -8.520  0.0000E+00  0.1200E+02
     -8.510  0.0000E+00  0.1200E+02
     -8.500  0.0000E+00  0.1200E+02
     -8.490  0.0000E+00  0.1200E+02
     -8.480  0.0000E+00  0.1200E+02
     -8.470  0.0000E+00  0.1200E+02
     -8.460  0.0000E+00  0.1200E+02
     -8.450  0.0000E+00  0.1200E+02
     -8.440  0.0000E+00  0.1200E+02
     -8.430  0.0000E+00  0.1200E+02
     -8.420  0.0000E+00  0.1200E+02
     -8.410  0.0000E+00  0.1200E+02
     -8.400  0.0000E+00  0.1200E+02
     -8.390  0.0000E+00  0.1200E+02
     -8.380  0.0000E+00  0.1200E+02
     -8.370  0.0000E+00  0.1200E+02
     -8.360  0.0000E+00  0.1200E+02
     -8.350  0.0000E+00  0.1200E+02
     -8.340  0.0000E+00  0.1200E+02
     -8.330  0.0000E+00  0.1200E+02
     -8.320  0.0000E+00  0.1200E+02
     -8.310  0.0000E+00  0.1200E+02
     -8.300  0.0000E+00  0.1200E+02
     -8.290  0.0000E+00  0.1200E+02
     -8.280  0.0000E+00  0.1200E+02
     -8.270  0.0000E+00  0.1200E+02
     -8.260  0.0000E+00  0.1200E+02
     -8.250  0.0000E+00  0.1200E+02
     -8.240  0.0000E+00  0.1200E+02
     -8.230  0.0000E+00  0.1200E+02
     -8.220  0.0000E+00  0.1200E+02
     -8.210  0.0000E+00  0.1200E+02
     -8.200  0.0000E+00  0.1200E+02
     -8.190  0.0000E+00  0.1200E+02
     -8.180  0.0000E+00  0.1200E+02
     -8.170  0.0000E+00  0.1200E+02
     -8.160  0.0000E+00  0.1200E+02
     -8.150  0.0000E+00  0.1200E+02
     -8.140  0.0000E+00  0.1200E+02
     -8.130  0.0000E+00  0.1200E+02
     -8.120  0.0000E+00  0.1200E+02
     -8.110  0.0000E+00  0.1200E+02
     -8.100  0.0000E+00  0.1200E+02
     -8.090  0.0000E+00  0.1200E+02
     -8.080  0.0000E+00  0.1200E+02
     -8.070  0.0000E+00  0.1200E+02
     -8.060  0.0000E+00  0.1200E+02
     -8.050  0.0000E+00  0.1200E+02
     -8.040  0.0000E+00  0.1200E+02
     -8.030  0.0000E+00  0.1200E+02
     -8.020  0.0000E+00  0.1200E+02
     -8.010  0.0000E+00  0.1200E+02
     -8.000  0.0000E+00  0.1200E+02
     -7.990  0.0000E+00  0.1200E+02
     -7.980  0.0000E+00  0.1200E+02
     -7.970  0.0000E+00  0.1200E+02
     -7.960  0.0000E+00  0.1200E+02
     -7.950  0.0000E+00  0.1200E+02
     -7.940  0.0000E+00  0.1200E+02
     -7.930  0.0000E+00  0.1200E+02
     -7.920  0.0000E+00  0.1200E+02
     -7.910  0.0000E+00  0.1200E+02
     -7.900  0.0000E+00  0.1200E+02
     -7.890  0.0000E+00  0.1200E+02
     -7.880  0.0000E+00  0.1200E+02
     -7.870  0.0000E+00  0.1200E+02
     -7.860  0.0000E+00  0.1200E+02
     -7.850  0.0000E+00  0.1200E+02
     -7.840  0.0000E+00  0.1200E+02
     -7.830  0.0000E+00  0.1200E+02
     -7.820  0.0000E+00  0.1200E+02
     -7.810  0.0000E+00  0.1200E+02
     -7.800  0.0000E+00  0.1200E+02
     -7.790  0.0000E+00  0.1200E+02
     -7.780  0.0000E+00  0.1200E+02
     -7.770  0.0000E+00  0.1200E+02
     -7.760  0.0000E+00  0.1200E+02
     -7.750  0.0000E+00  0.1200E+02
     -7.740  0.0000E+00  0.1200E+02
     -7.730  0.0000E+00  0.1200E+02
     -7.720  0.0000E+00  0.1200E+02
     -7.710  0.0000E+00  0.1200E+02
     -7.700  0.0000E+00  0.1200E+02
     -7.690  0.0000E+00  0.1200E+02
     -7.680  0.0000E+00  0.1200E+02
     -7.670  0.0000E+00  0.1200E+02
     -7.660  0.0000E+00  0.1200E+02
     -7.650  0.0000E+00  0.1200E+02
     -7.640  0.0000E+00  0.1200E+02
     -7.630  0.0000E+00  0.1200E+02
     -7.620  0.0000E+00  0.1200E+02
     -7.610  0.0000E+00  0.1200E+02
     -7.600  0.0000E+00  0.1200E+02
     -7.590  0.0000E+00  0.1200E+02
     -7.580  0.0000E+00  0.1200E+02
     -7.570  0.0000E+00  0.1200E+02
     -7.560  0.0000E+00  0.1200E+02
     -7.550  0.0000E+00  0.1200E+02
     -7.540  0.0000E+00  0.1200E+02
     -7.530  0.0000E+00  0.1200E+02
     -7.520  0.0000E+00  0.1200E+02
     -7.510  0.0000E+00  0.1200E+02
     -7.500  0.0000E+00  0.1200E+02
     -7.490  0.0000E+00  0.1200E+02
     -7.480  0.0000E+00  0.1200E+02
     -7.470  0.0000E+00  0.1200E+02
     -7.460  0.0000E+00  0.1200E+02
     -7.450  0.0000E+00  0.1200E+02
     -7.440  0.0000E+00  0.1200E+02
     -7.430  0.0000E+00  0.1200E+02
     -7.420  0.0000E+00  0.1200E+02
     -7.410  0.0000E+00  0.1200E+02
     -7.400  0.0000E+00  0.1200E+02
     -7.390  0.0000E+00  0.1200E+02
     -7.380  0.0000E+00  0.1200E+02
     -7.370  0.0000E+00  0.1200E+02
     -7.360  0.0000E+00  0.1200E+02
     -7.350  0.0000E+00  0.1200E+02
     -7.340  0.0000E+00  0.1200E+02
     -7.330  0.0000E+00  0.1200E+02
     -7.320  0.0000E+00  0.1200E+02
     -7.310  0.0000E+00  0.1200E+02
     -7.300  0.0000E+00  0.1200E+02
     -7.290  0.0000E+00  0.1200E+02
     -7.280  0.0000E+00  0.1200E+02
     -7.270  0.0000E+00  0.1200E+02
     -7.260  0.0000E+00  0.1200E+02
     -7.250  0.0000E+00  0.1200E+02
     -7.240  0.0000E+00  0.1200E+02
     -7.230  0.0000E+00  0.1200E+02
     -7.220  0.0000E+00  0.1200E+02
     -7.210  0.0000E+00  0.1200E+02
     -7.200  0.0000E+00  0.1200E+02
     -7.190  0.0000E+00  0.1200E+02
     -7.180  0.0000E+00  0.1200E+02
     -7.170  0.0000E+00  0.1200E+02
     -7.160  0.0000E+00  0.1200E+02
     -7.150  0.0000E+00  0.1200E+02
     -7.140  0.0000E+00  0.1200E+02
     -7.130  0.0000E+00  0.1200E+02
     -7.120  0.0000E+00  0.1200E+02
     -7.110  0.0000E+00  0.1200E+02
     -7.100  0.0000E+00  0.1200E+02
     -7.090  0.0000E+00  0.1200E+02
     -7.080  0.0000E+00  0.1200E+02
     -7.070  0.0000E+00  0.1200E+02
     -7.060  0.0000E+00  0.1200E+02
     -7.050  0.0000E+00  0.1200E+02
     -7.040  0.0000E+00  0.1200E+02
     -7.030  0.0000E+00  0.1200E+02
     -7.020  0.0000E+00  0.1200E+02
     -7.010  0.0000E+00  0.1200E+02
     -7.000  0.0000E+00  0.1200E+02
     -6.990  0.0000E+00  0.1200E+02
     -6.980  0.0000E+00  0.1200E+02
     -6.970  0.0000E+00  0.1200E+02
     -6.960  0.0000E+00  0.1200E+02
     -6.950  0.0000E+00  0.1200E+02
     -6.940  0.0000E+00  0.1200E+02
     -6.930  0.0000E+00  0.1200E+02
     -6.920  0.0000E+00  0.1200E+02
     -6.910  0.0000E+00  0.1200E+02
     -6.900  0.0000E+00  0.1200E+02
     -6.890  0.0000E+00  0.1200E+02
     -6.880  0.0000E+00  0.1200E+02
     -6.870  0.0000E+00  0.1200E+02
     -6.860  0.0000E+00  0.1200E+02
     -6.850  0.0000E+00  0.1200E+02
     -6.840  0.0000E+00  0.1200E+02
     -6.830  0.0000E+00  0.1200E+02
     -6.820  0.0000E+00  0.1200E+02
     -6.810  0.0000E+00  0.1200E+02
     -6.800  0.0000E+00  0.1200E+02
     -6.790  0.0000E+00  0.1200E+02
     -6.780  0.0000E+00  0.1200E+02
     -6.770  0.0000E+00  0.1200E+02
     -6.760  0.2602E-15  0.1200E+02
     -6.750  0.2776E-14  0.1200E+02
     -6.740  0.2524E-13  0.1200E+02
     -6.730  0.2205E-12  0.1200E+02
     -6.720  0.1780E-11  0.1200E+02
     -6.710  0.1326E-10  0.1200E+02
     -6.700  0.9128E-10  0.1200E+02
     -6.690  0.5803E-09  0.1200E+02
     -6.680  0.3408E-08  0.1200E+02
     -6.670  0.1848E-07  0.1200E+02
     -6.660  0.9260E-07  0.1200E+02
     -6.650  0.4285E-06  0.1200E+02
     -6.640  0.1832E-05  0.1200E+02
     -6.630  0.7235E-05  0.1200E+02
     -6.620  0.2640E-04  0.1200E+02
     -6.610  0.8901E-04  0.1200E+02
     -6.600  0.2773E-03  0.1200E+02
     -6.590  0.7985E-03  0.1200E+02
     -6.580  0.2125E-02  0.1200E+02
     -6.570  0.5231E-02  0.1200E+02
     -6.560  0.1191E-01  0.1200E+02
     -6.550  0.2511E-01  0.1200E+02
     -6.540  0.4903E-01  0.1200E+02
     -6.530  0.8876E-01  0.1200E+02
     -6.520  0.1492E+00  0.1200E+02
     -6.510  0.2334E+00  0.1201E+02
     -6.500  0.3402E+00  0.1201E+02
     -6.490  0.4636E+00  0.1201E+02
     -6.480  0.5926E+00  0.1202E+02
     -6.470  0.7132E+00  0.1203E+02
     -6.460  0.8118E+00  0.1203E+02
     -6.450  0.8782E+00  0.1204E+02
     -6.440  0.9085E+00  0.1205E+02
     -6.430  0.9064E+00  0.1206E+02
     -6.420  0.8839E+00  0.1207E+02
     -6.410  0.8593E+00  0.1208E+02
     -6.400  0.8548E+00  0.1209E+02
     -6.390  0.8900E+00  0.1210E+02
     -6.380  0.9762E+00  0.1211E+02
     -6.370  0.1111E+01  0.1212E+02
     -6.360  0.1275E+01  0.1213E+02
     -6.350  0.1441E+01  0.1214E+02
     -6.340  0.1576E+01  0.1216E+02
     -6.330  0.1658E+01  0.1218E+02
     -6.320  0.1675E+01  0.1219E+02
     -6.310  0.1637E+01  0.1221E+02
     -6.300  0.1566E+01  0.1223E+02
     -6.290  0.1492E+01  0.1224E+02
     -6.280  0.1440E+01  0.1226E+02
     -6.270  0.1426E+01  0.1227E+02
     -6.260  0.1453E+01  0.1228E+02
     -6.250  0.1503E+01  0.1230E+02
     -6.240  0.1553E+01  0.1231E+02
     -6.230  0.1578E+01  0.1233E+02
     -6.220  0.1562E+01  0.1235E+02
     -6.210  0.1508E+01  0.1236E+02
     -6.200  0.1439E+01  0.1238E+02
     -6.190  0.1390E+01  0.1239E+02
     -6.180  0.1399E+01  0.1240E+02
     -6.170  0.1494E+01  0.1242E+02
     -6.160  0.1679E+01  0.1243E+02
     -6.150  0.1933E+01  0.1245E+02
     -6.140  0.2210E+01  0.1248E+02
     -6.130  0.2460E+01  0.1250E+02
     -6.120  0.2640E+01  0.1253E+02
     -6.110  0.2730E+01  0.1255E+02
     -6.100  0.2736E+01  0.1258E+02
     -6.090  0.2686E+01  0.1261E+02
     -6.080  0.2619E+01  0.1264E+02
     -6.070  0.2569E+01  0.1266E+02
     -6.060  0.2558E+01  0.1269E+02
     -6.050  0.2595E+01  0.1271E+02
     -6.040  0.2672E+01  0.1274E+02
     -6.030  0.2771E+01  0.1277E+02
     -6.020  0.2863E+01  0.1280E+02
     -6.010  0.2920E+01  0.1282E+02
     -6.000  0.2923E+01  0.1285E+02
     -5.990  0.2871E+01  0.1288E+02
     -5.980  0.2785E+01  0.1291E+02
     -5.970  0.2701E+01  0.1294E+02
     -5.960  0.2657E+01  0.1296E+02
     -5.950  0.2682E+01  0.1299E+02
     -5.940  0.2785E+01  0.1302E+02
     -5.930  0.2954E+01  0.1305E+02
     -5.920  0.3166E+01  0.1308E+02
     -5.910  0.3394E+01  0.1311E+02
     -5.900  0.3618E+01  0.1315E+02
     -5.890  0.3830E+01  0.1319E+02
     -5.880  0.4027E+01  0.1323E+02
     -5.870  0.4210E+01  0.1327E+02
     -5.860  0.4377E+01  0.1331E+02
     -5.850  0.4521E+01  0.1336E+02
     -5.840  0.4631E+01  0.1341E+02
     -5.830  0.4705E+01  0.1345E+02
     -5.820  0.4741E+01  0.1350E+02
     -5.810  0.4746E+01  0.1355E+02
     -5.800  0.4727E+01  0.1360E+02
     -5.790  0.4690E+01  0.1364E+02
     -5.780  0.4641E+01  0.1369E+02
     -5.770  0.4583E+01  0.1373E+02
     -5.760  0.4524E+01  0.1378E+02
     -5.750  0.4473E+01  0.1382E+02
     -5.740  0.4439E+01  0.1387E+02
     -5.730  0.4424E+01  0.1391E+02
     -5.720  0.4425E+01  0.1396E+02
     -5.710  0.4428E+01  0.1400E+02
     -5.700  0.4410E+01  0.1405E+02
     -5.690  0.4347E+01  0.1409E+02
     -5.680  0.4219E+01  0.1413E+02
     -5.670  0.4018E+01  0.1417E+02
     -5.660  0.3750E+01  0.1421E+02
     -5.650  0.3436E+01  0.1424E+02
     -5.640  0.3106E+01  0.1427E+02
     -5.630  0.2789E+01  0.1430E+02
     -5.620  0.2508E+01  0.1433E+02
     -5.610  0.2271E+01  0.1435E+02
     -5.600  0.2077E+01  0.1437E+02
     -5.590  0.1916E+01  0.1439E+02
     -5.580  0.1778E+01  0.1441E+02
     -5.570  0.1659E+01  0.1442E+02
     -5.560  0.1560E+01  0.1444E+02
     -5.550  0.1489E+01  0.1445E+02
     -5.540  0.1453E+01  0.1447E+02
     -5.530  0.1459E+01  0.1448E+02
     -5.520  0.1512E+01  0.1450E+02
     -5.510  0.1617E+01  0.1452E+02
     -5.500  0.1774E+01  0.1453E+02
     -5.490  0.1981E+01  0.1455E+02
     -5.480  0.2221E+01  0.1457E+02
     -5.470  0.2463E+01  0.1460E+02
     -5.460  0.2662E+01  0.1463E+02
     -5.450  0.2767E+01  0.1465E+02
     -5.440  0.2740E+01  0.1468E+02
     -5.430  0.2572E+01  0.1471E+02
     -5.420  0.2287E+01  0.1473E+02
     -5.410  0.1936E+01  0.1475E+02
     -5.400  0.1581E+01  0.1476E+02
     -5.390  0.1274E+01  0.1478E+02
     -5.380  0.1042E+01  0.1479E+02
     -5.370  0.8888E+00  0.1480E+02
     -5.360  0.8014E+00  0.1481E+02
     -5.350  0.7595E+00  0.1481E+02
     -5.340  0.7455E+00  0.1482E+02
     -5.330  0.7485E+00  0.1483E+02
     -5.320  0.7622E+00  0.1484E+02
     -5.310  0.7836E+00  0.1484E+02
     -5.300  0.8105E+00  0.1485E+02
     -5.290  0.8421E+00  0.1486E+02
     -5.280  0.8788E+00  0.1487E+02
     -5.270  0.9208E+00  0.1488E+02
     -5.260  0.9657E+00  0.1489E+02
     -5.250  0.1007E+01  0.1490E+02
     -5.240  0.1034E+01  0.1491E+02
     -5.230  0.1037E+01  0.1492E+02
     -5.220  0.1010E+01  0.1493E+02
     -5.210  0.9563E+00  0.1494E+02
     -5.200  0.8844E+00  0.1495E+02
     -5.190  0.8060E+00  0.1495E+02
     -5.180  0.7318E+00  0.1496E+02
     -5.170  0.6694E+00  0.1497E+02
     -5.160  0.6228E+00  0.1497E+02
     -5.150  0.5941E+00  0.1498E+02
     -5.140  0.5846E+00  0.1499E+02
     -5.130  0.5946E+00  0.1499E+02
     -5.120  0.6236E+00  0.1500E+02
     -5.110  0.6696E+00  0.1501E+02
     -5.100  0.7289E+00  0.1501E+02
     -5.090  0.7958E+00  0.1502E+02
     -5.080  0.8625E+00  0.1503E+02
     -5.070  0.9201E+00  0.1504E+02
     -5.060  0.9611E+00  0.1505E+02
     -5.050  0.9821E+00  0.1506E+02
     -5.040  0.9850E+00  0.1507E+02
     -5.030  0.9763E+00  0.1508E+02
     -5.020  0.9628E+00  0.1509E+02
     -5.010  0.9483E+00  0.1510E+02
     -5.000  0.9308E+00  0.1511E+02
     -4.990  0.9045E+00  0.1512E+02
     -4.980  0.8630E+00  0.1512E+02
     -4.970  0.8042E+00  0.1513E+02
     -4.960  0.7328E+00  0.1514E+02
     -4.950  0.6599E+00  0.1515E+02
     -4.940  0.5996E+00  0.1515E+02
     -4.930  0.5640E+00  0.1516E+02
     -4.920  0.5582E+00  0.1516E+02
     -4.910  0.5788E+00  0.1517E+02
     -4.900  0.6141E+00  0.1517E+02
     -4.890  0.6488E+00  0.1518E+02
     -4.880  0.6690E+00  0.1519E+02
     -4.870  0.6677E+00  0.1519E+02
     -4.860  0.6484E+00  0.1520E+02
     -4.850  0.6258E+00  0.1521E+02
     -4.840  0.6237E+00  0.1521E+02
     -4.830  0.6699E+00  0.1522E+02
     -4.820  0.7896E+00  0.1523E+02
     -4.810  0.9980E+00  0.1524E+02
     -4.800  0.1294E+01  0.1525E+02
     -4.790  0.1660E+01  0.1527E+02
     -4.780  0.2061E+01  0.1529E+02
     -4.770  0.2456E+01  0.1531E+02
     -4.760  0.2805E+01  0.1534E+02
     -4.750  0.3080E+01  0.1537E+02
     -4.740  0.3270E+01  0.1540E+02
     -4.730  0.3386E+01  0.1544E+02
     -4.720  0.3452E+01  0.1547E+02
     -4.710  0.3506E+01  0.1551E+02
     -4.700  0.3588E+01  0.1554E+02
     -4.690  0.3729E+01  0.1558E+02
     -4.680  0.3951E+01  0.1562E+02
     -4.670  0.4253E+01  0.1566E+02
     -4.660  0.4618E+01  0.1571E+02
     -4.650  0.5016E+01  0.1576E+02
     -4.640  0.5411E+01  0.1581E+02
     -4.630  0.5776E+01  0.1587E+02
     -4.620  0.6093E+01  0.1593E+02
     -4.610  0.6357E+01  0.1600E+02
     -4.600  0.6568E+01  0.1606E+02
     -4.590  0.6720E+01  0.1613E+02
     -4.580  0.6801E+01  0.1620E+02
     -4.570  0.6796E+01  0.1626E+02
     -4.560  0.6693E+01  0.1633E+02
     -4.550  0.6493E+01  0.1640E+02
     -4.540  0.6211E+01  0.1646E+02
     -4.530  0.5874E+01  0.1652E+02
     -4.520  0.5511E+01  0.1657E+02
     -4.510  0.5141E+01  0.1662E+02
     -4.500  0.4775E+01  0.1667E+02
     -4.490  0.4416E+01  0.1672E+02
     -4.480  0.4069E+01  0.1676E+02
     -4.470  0.3742E+01  0.1679E+02
     -4.460  0.3454E+01  0.1683E+02
     -4.450  0.3229E+01  0.1686E+02
     -4.440  0.3082E+01  0.1689E+02
     -4.430  0.3014E+01  0.1692E+02
     -4.420  0.3003E+01  0.1695E+02
     -4.410  0.3010E+01  0.1698E+02
     -4.400  0.2991E+01  0.1701E+02
     -4.390  0.2908E+01  0.1704E+02
     -4.380  0.2744E+01  0.1707E+02
     -4.370  0.2506E+01  0.1709E+02
     -4.360  0.2218E+01  0.1712E+02
     -4.350  0.1917E+01  0.1713E+02
     -4.340  0.1640E+01  0.1715E+02
     -4.330  0.1416E+01  0.1717E+02
     -4.320  0.1263E+01  0.1718E+02
     -4.310  0.1185E+01  0.1719E+02
     -4.300  0.1172E+01  0.1720E+02
     -4.290  0.1203E+01  0.1721E+02
     -4.280  0.1251E+01  0.1723E+02
     -4.270  0.1290E+01  0.1724E+02
     -4.260  0.1301E+01  0.1725E+02
     -4.250  0.1277E+01  0.1726E+02
     -4.240  0.1226E+01  0.1728E+02
     -4.230  0.1167E+01  0.1729E+02
     -4.220  0.1127E+01  0.1730E+02
     -4.210  0.1130E+01  0.1731E+02
     -4.200  0.1191E+01  0.1732E+02
     -4.190  0.1307E+01  0.1734E+02
     -4.180  0.1455E+01  0.1735E+02
     -4.170  0.1599E+01  0.1737E+02
     -4.160  0.1696E+01  0.1738E+02
     -4.150  0.1714E+01  0.1740E+02
     -4.140  0.1644E+01  0.1742E+02
     -4.130  0.1503E+01  0.1743E+02
     -4.120  0.1327E+01  0.1745E+02
     -4.110  0.1167E+01  0.1746E+02
     -4.100  0.1068E+01  0.1747E+02
     -4.090  0.1059E+01  0.1748E+02
     -4.080  0.1149E+01  0.1749E+02
     -4.070  0.1323E+01  0.1750E+02
     -4.060  0.1552E+01  0.1752E+02
     -4.050  0.1803E+01  0.1754E+02
     -4.040  0.2051E+01  0.1756E+02
     -4.030  0.2281E+01  0.1758E+02
     -4.020  0.2494E+01  0.1760E+02
     -4.010  0.2700E+01  0.1763E+02
     -4.000  0.2916E+01  0.1766E+02
     -3.990  0.3157E+01  0.1769E+02
     -3.980  0.3442E+01  0.1773E+02
     -3.970  0.3784E+01  0.1776E+02
     -3.960  0.4197E+01  0.1781E+02
     -3.950  0.4682E+01  0.1785E+02
     -3.940  0.5229E+01  0.1791E+02
     -3.930  0.5809E+01  0.1796E+02
     -3.920  0.6379E+01  0.1803E+02
     -3.910  0.6880E+01  0.1810E+02
     -3.900  0.7248E+01  0.1817E+02
     -3.890  0.7430E+01  0.1824E+02
     -3.880  0.7393E+01  0.1832E+02
     -3.870  0.7145E+01  0.1839E+02
     -3.860  0.6728E+01  0.1846E+02
     -3.850  0.6218E+01  0.1852E+02
     -3.840  0.5691E+01  0.1858E+02
     -3.830  0.5211E+01  0.1863E+02
     -3.820  0.4805E+01  0.1868E+02
     -3.810  0.4469E+01  0.1872E+02
     -3.800  0.4182E+01  0.1876E+02
     -3.790  0.3920E+01  0.1880E+02
     -3.780  0.3673E+01  0.1884E+02
     -3.770  0.3443E+01  0.1887E+02
     -3.760  0.3240E+01  0.1890E+02
     -3.750  0.3071E+01  0.1894E+02
     -3.740  0.2936E+01  0.1896E+02
     -3.730  0.2828E+01  0.1899E+02
     -3.720  0.2738E+01  0.1902E+02
     -3.710  0.2667E+01  0.1905E+02
     -3.700  0.2621E+01  0.1907E+02
     -3.690  0.2615E+01  0.1910E+02
     -3.680  0.2658E+01  0.1913E+02
     -3.670  0.2749E+01  0.1915E+02
     -3.660  0.2872E+01  0.1918E+02
     -3.650  0.3000E+01  0.1921E+02
     -3.640  0.3099E+01  0.1924E+02
     -3.630  0.3142E+01  0.1927E+02
     -3.620  0.3113E+01  0.1931E+02
     -3.610  0.3008E+01  0.1934E+02
     -3.600  0.2839E+01  0.1936E+02
     -3.590  0.2630E+01  0.1939E+02
     -3.580  0.2406E+01  0.1941E+02
     -3.570  0.2190E+01  0.1944E+02
     -3.560  0.1999E+01  0.1946E+02
     -3.550  0.1837E+01  0.1947E+02
     -3.540  0.1701E+01  0.1949E+02
     -3.530  0.1581E+01  0.1951E+02
     -3.520  0.1470E+01  0.1952E+02
     -3.510  0.1366E+01  0.1954E+02
     -3.500  0.1273E+01  0.1955E+02
     -3.490  0.1197E+01  0.1956E+02
     -3.480  0.1147E+01  0.1957E+02
     -3.470  0.1127E+01  0.1958E+02
     -3.460  0.1135E+01  0.1959E+02
     -3.450  0.1167E+01  0.1961E+02
     -3.440  0.1219E+01  0.1962E+02
     -3.430  0.1288E+01  0.1963E+02
     -3.420  0.1373E+01  0.1965E+02
     -3.410  0.1475E+01  0.1966E+02
     -3.400  0.1592E+01  0.1968E+02
     -3.390  0.1718E+01  0.1969E+02
     -3.380  0.1843E+01  0.1971E+02
     -3.370  0.1954E+01  0.1973E+02
     -3.360  0.2036E+01  0.1975E+02
     -3.350  0.2078E+01  0.1977E+02
     -3.340  0.2070E+01  0.1979E+02
     -3.330  0.2009E+01  0.1981E+02
     -3.320  0.1897E+01  0.1983E+02
     -3.310  0.1744E+01  0.1985E+02
     -3.300  0.1569E+01  0.1987E+02
     -3.290  0.1395E+01  0.1988E+02
     -3.280  0.1253E+01  0.1989E+02
     -3.270  0.1168E+01  0.1990E+02
     -3.260  0.1154E+01  0.1991E+02
     -3.250  0.1212E+01  0.1993E+02
     -3.240  0.1323E+01  0.1994E+02
     -3.230  0.1459E+01  0.1995E+02
     -3.220  0.1585E+01  0.1997E+02
     -3.210  0.1672E+01  0.1999E+02
     -3.200  0.1703E+01  0.2000E+02
     -3.190  0.1677E+01  0.2002E+02
     -3.180  0.1606E+01  0.2004E+02
     -3.170  0.1507E+01  0.2005E+02
     -3.160  0.1397E+01  0.2007E+02
     -3.150  0.1292E+01  0.2008E+02
     -3.140  0.1201E+01  0.2009E+02
     -3.130  0.1132E+01  0.2010E+02
     -3.120  0.1094E+01  0.2011E+02
     -3.110  0.1098E+01  0.2012E+02
     -3.100  0.1147E+01  0.2014E+02
     -3.090  0.1241E+01  0.2015E+02
     -3.080  0.1367E+01  0.2016E+02
     -3.070  0.1507E+01  0.2018E+02
     -3.060  0.1645E+01  0.2019E+02
     -3.050  0.1774E+01  0.2021E+02
     -3.040  0.1898E+01  0.2023E+02
     -3.030  0.2036E+01  0.2025E+02
     -3.020  0.2203E+01  0.2027E+02
     -3.010  0.2406E+01  0.2030E+02
     -3.000  0.2629E+01  0.2032E+02
     -2.990  0.2836E+01  0.2035E+02
     -2.980  0.2980E+01  0.2038E+02
     -2.970  0.3019E+01  0.2041E+02
     -2.960  0.2936E+01  0.2044E+02
     -2.950  0.2745E+01  0.2047E+02
     -2.940  0.2490E+01  0.2049E+02
     -2.930  0.2225E+01  0.2052E+02
     -2.920  0.2000E+01  0.2054E+02
     -2.910  0.1844E+01  0.2055E+02
     -2.900  0.1766E+01  0.2057E+02
     -2.890  0.1749E+01  0.2059E+02
     -2.880  0.1771E+01  0.2061E+02
     -2.870  0.1804E+01  0.2062E+02
     -2.860  0.1828E+01  0.2064E+02
     -2.850  0.1835E+01  0.2066E+02
     -2.840  0.1823E+01  0.2068E+02
     -2.830  0.1801E+01  0.2070E+02
     -2.820  0.1779E+01  0.2072E+02
     -2.810  0.1768E+01  0.2073E+02
     -2.800  0.1781E+01  0.2075E+02
     -2.790  0.1827E+01  0.2077E+02
     -2.780  0.1914E+01  0.2079E+02
     -2.770  0.2049E+01  0.2081E+02
     -2.760  0.2232E+01  0.2083E+02
     -2.750  0.2460E+01  0.2086E+02