Automatically generated mesh
      72
Reciprocal lattice
    0.03125000000000    0.03125000000000    0.00000000000000            48
    0.09375000000000    0.03125000000000    0.00000000000000            96
    0.15625000000000    0.03125000000000    0.00000000000000            96
    0.21875000000000    0.03125000000000    0.00000000000000            96
    0.28125000000000    0.03125000000000    0.00000000000000            96
    0.34375000000000    0.03125000000000    0.00000000000000            96
    0.40625000000000    0.03125000000000    0.00000000000000            96
    0.46875000000000    0.03125000000000    0.00000000000000            96
   -0.46875000000000    0.03125000000000    0.00000000000000            96
   -0.40625000000000    0.03125000000000    0.00000000000000            96
   -0.34375000000000    0.03125000000000    0.00000000000000            96
   -0.28125000000000    0.03125000000000    0.00000000000000            96
   -0.21875000000000    0.03125000000000    0.00000000000000            96
   -0.15625000000000    0.03125000000000    0.00000000000000            96
   -0.09375000000000    0.03125000000000    0.00000000000000            96
   -0.03125000000000    0.03125000000000    0.00000000000000            48
    0.09375000000000    0.09375000000000    0.00000000000000            48
    0.15625000000000    0.09375000000000    0.00000000000000            96
    0.21875000000000    0.09375000000000    0.00000000000000            96
    0.28125000000000    0.09375000000000    0.00000000000000            96
    0.34375000000000    0.09375000000000    0.00000000000000            96
    0.40625000000000    0.09375000000000    0.00000000000000            96
    0.46875000000000    0.09375000000000    0.00000000000000            96
   -0.46875000000000    0.09375000000000    0.00000000000000            96
   -0.40625000000000    0.09375000000000    0.00000000000000            96
   -0.34375000000000    0.09375000000000    0.00000000000000            96
   -0.28125000000000    0.09375000000000    0.00000000000000            96
   -0.21875000000000    0.09375000000000    0.00000000000000            96
   -0.15625000000000    0.09375000000000    0.00000000000000            96
   -0.09375000000000    0.09375000000000    0.00000000000000            48
    0.15625000000000    0.15625000000000    0.00000000000000            48
    0.21875000000000    0.15625000000000    0.00000000000000            96
    0.28125000000000    0.15625000000000    0.00000000000000            96
    0.34375000000000    0.15625000000000    0.00000000000000            96
    0.40625000000000    0.15625000000000    0.00000000000000            96
    0.46875000000000    0.15625000000000    0.00000000000000            96
   -0.46875000000000    0.15625000000000    0.00000000000000            96
   -0.40625000000000    0.15625000000000    0.00000000000000            96
   -0.34375000000000    0.15625000000000    0.00000000000000            96
   -0.28125000000000    0.15625000000000    0.00000000000000            96
   -0.21875000000000    0.15625000000000    0.00000000000000            96
   -0.15625000000000    0.15625000000000    0.00000000000000            48
    0.21875000000000    0.21875000000000    0.00000000000000            48
    0.28125000000000    0.21875000000000    0.00000000000000            96
    0.34375000000000    0.21875000000000    0.00000000000000            96
    0.40625000000000    0.21875000000000    0.00000000000000            96
    0.46875000000000    0.21875000000000    0.00000000000000            96
   -0.46875000000000    0.21875000000000    0.00000000000000            96
   -0.40625000000000    0.21875000000000    0.00000000000000            96
   -0.34375000000000    0.21875000000000    0.00000000000000            96
   -0.28125000000000    0.21875000000000    0.00000000000000            96
   -0.21875000000000    0.21875000000000    0.00000000000000            48
    0.28125000000000    0.28125000000000    0.00000000000000            48
    0.34375000000000    0.28125000000000    0.00000000000000            96
    0.40625000000000    0.28125000000000    0.00000000000000            96
    0.46875000000000    0.28125000000000    0.00000000000000            96
   -0.46875000000000    0.28125000000000    0.00000000000000            96
   -0.40625000000000    0.28125000000000    0.00000000000000            96
   -0.34375000000000    0.28125000000000    0.00000000000000            96
   -0.28125000000000    0.28125000000000    0.00000000000000            48
    0.34375000000000    0.34375000000000    0.00000000000000            48
    0.40625000000000    0.34375000000000    0.00000000000000            96
    0.46875000000000    0.34375000000000    0.00000000000000            96
   -0.46875000000000    0.34375000000000    0.00000000000000            96
   -0.40625000000000    0.34375000000000    0.00000000000000            96
   -0.34375000000000    0.34375000000000    0.00000000000000            48
    0.40625000000000    0.40625000000000    0.00000000000000            48
    0.46875000000000    0.40625000000000    0.00000000000000            96
   -0.46875000000000    0.40625000000000    0.00000000000000            96
   -0.40625000000000    0.40625000000000    0.00000000000000            48
    0.46875000000000    0.46875000000000    0.00000000000000            48
   -0.46875000000000    0.46875000000000    0.00000000000000            48
