PROCAR lm decomposed
# of k-points:   72         # of bands:   24         # of ions:    3

 k-point     1 :    0.03125000 0.03125000 0.00000000     weight = 0.00781250

band     1 # energy  -61.57035252 # occ.  2.00000000
 
ion      s     py     pz     px    dxy    dyz    dz2    dxz  x2-y2    tot
    1  0.995  0.000  0.000  0.000  0.000  0.000  0.000  0.000  0.000  0.995
    2  0.000  0.000  0.000  0.000  0.000  0.000  0.000  0.000  0.000  0.000
    3  0.000  0.000  0.000  0.000  0.000  0.000  0.000  0.000  0.000  0.000
tot    0.995  0.000  0.000  0.000  0.000  0.000  0.000  0.000  0.000  0.995
 
band     2 # energy  -35.73433002 # occ.  2.00000000
 
ion      s     py     pz     px    dxy    dyz    dz2    dxz  x2-y2    tot
    1  0.000  0.000  0.979  0.000  0.000  0.000  0.000  0.000  0.000  0.979
    2  0.002  0.000  0.001  0.000  0.000  0.000  0.000  0.000  0.000  0.002
    3  0.002  0.000  0.001  0.000  0.000  0.000  0.000  0.000  0.000  0.002
tot    0.003  0.000  0.980  0.000  0.000  0.000  0.000  0.000  0.000  0.983
 
band     3 # energy  -35.53976611 # occ.  2.00000000
 
ion      s     py     pz     px    dxy    dyz    dz2    dxz  x2-y2    tot
    1  0.000  0.745  0.000  0.248  0.000  0.000  0.000  0.000  0.000  0.993
    2  0.000  0.000  0.000  0.000  0.000  0.000  0.000  0.000  0.000  0.000
    3  0.000  0.000  0.000  0.000  0.000  0.000  0.000  0.000  0.000  0.000
tot    0.000  0.745  0.000  0.248  0.000  0.000  0.000  0.000  0.000  0.994
 
band     4 # energy  -35.53100646 # occ.  2.00000000
 
ion      s     py     pz     px    dxy    dyz    dz2    dxz  x2-y2    tot
    1  0.000  0.248  0.000  0.745  0.000  0.000  0.000  0.000  0.000  0.994
    2  0.000  0.000  0.000  0.000  0.000  0.000  0.000  0.000  0.000  0.000
    3  0.000  0.000  0.000  0.000  0.000  0.000  0.000  0.000  0.000  0.000
tot    0.000  0.249  0.000  0.746  0.000  0.000  0.000  0.000  0.000  0.994
 
band     5 # energy  -14.76925844 # occ.  2.00000000
 
ion      s     py     pz     px    dxy    dyz    dz2    dxz  x2-y2    tot
    1  0.079  0.001  0.000  0.000  0.000  0.000  0.000  0.000  0.000  0.081
    2  0.276  0.000  0.005  0.000  0.000  0.000  0.000  0.000  0.000  0.281
    3  0.276  0.000  0.005  0.000  0.000  0.000  0.000  0.000  0.000  0.281
tot    0.631  0.001  0.010  0.000  0.000  0.000  0.000  0.000  0.000  0.643
 
band     6 # energy  -13.49158287 # occ.  2.00000000
 
ion      s     py     pz     px    dxy    dyz    dz2    dxz  x2-y2    tot
    1  0.000  0.000  0.033  0.000  0.000  0.001  0.000  0.000  0.000  0.035
    2  0.314  0.000  0.000  0.000  0.000  0.000  0.000  0.000  0.000  0.314
    3  0.314  0.000  0.000  0.000  0.000  0.000  0.000  0.000  0.000  0.314
tot    0.628  0.000  0.034  0.000  0.000  0.001  0.000  0.000  0.000  0.663
 
band     7 # energy   -6.28748445 # occ.  2.00000000
 
ion      s     py     pz     px    dxy    dyz    dz2    dxz  x2-y2    tot
    1  0.092  0.001  0.000  0.000  0.001  0.000  0.173  0.000  0.002  0.268
    2  0.018  0.000  0.127  0.000  0.000  0.000  0.000  0.000  0.000  0.145
    3  0.018  0.000  0.127  0.000  0.000  0.000  0.000  0.000  0.000  0.145
tot    0.127  0.001  0.254  0.000  0.001  0.000  0.173  0.000  0.002  0.559
 
band     8 # energy   -3.43669933 # occ.  2.00000000
 
ion      s     py     pz     px    dxy    dyz    dz2    dxz  x2-y2    tot
    1  0.005  0.003  0.000  0.001  0.130  0.000  0.000  0.000  0.391  0.530
    2  0.002  0.087  0.000  0.029  0.000  0.000  0.000  0.000  0.000  0.117
    3  0.002  0.087  0.000  0.029  0.000  0.000  0.000  0.000  0.000  0.117
tot    0.008  0.176  0.000  0.059  0.130  0.000  0.000  0.000  0.391  0.765
 
band     9 # energy   -3.29104352 # occ.  2.00000000
 
ion      s     py     pz     px    dxy    dyz    dz2    dxz  x2-y2    tot
    1  0.000  0.001  0.000  0.003  0.402  0.000  0.000  0.000  0.134  0.540
    2  0.000  0.029  0.000  0.088  0.000  0.000  0.000  0.000  0.000  0.118
    3  0.000  0.029  0.000  0.088  0.000  0.000  0.000  0.000  0.000  0.118
tot    0.000  0.060  0.000  0.179  0.402  0.000  0.000  0.000  0.134  0.775
 
band    10 # energy   -2.77543152 # occ.  2.00000000
 
ion      s     py     pz     px    dxy    dyz    dz2    dxz  x2-y2    tot
    1  0.000  0.000  0.012  0.000  0.000  0.160  0.000  0.054  0.000  0.226
    2  0.000  0.038  0.153  0.014  0.000  0.000  0.000  0.000  0.000  0.206
    3  0.000  0.038  0.153  0.014  0.000  0.000  0.000  0.000  0.000  0.206
tot    0.000  0.077  0.318  0.027  0.000  0.160  0.000  0.054  0.000  0.638
 
band    11 # energy   -2.30629727 # occ.  2.00000000
 
ion      s     py     pz     px    dxy    dyz    dz2    dxz  x2-y2    tot
    1  0.000  0.000  0.000  0.000  0.000  0.124  0.000  0.368  0.000  0.492
    2  0.000  0.042  0.000  0.115  0.000  0.000  0.000  0.000  0.000  0.157
    3  0.000  0.042  0.000  0.115  0.000  0.000  0.000  0.000  0.000  0.157
tot    0.000  0.084  0.000  0.229  0.000  0.124  0.000  0.368  0.000  0.805
 
band    12 # energy   -2.01683918 # occ.  2.00000000
 
ion      s     py     pz     px    dxy    dyz    dz2    dxz  x2-y2    tot
    1  0.000  0.000  0.019  0.000  0.000  0.194  0.000  0.065  0.000  0.278
    2  0.000  0.081  0.095  0.030  0.000  0.000  0.000  0.000  0.000  0.206
    3  0.000  0.081  0.095  0.030  0.000  0.000  0.000  0.000  0.000  0.206
tot    0.000  0.162  0.209  0.060  0.000  0.194  0.000  0.065  0.000  0.691
 
band    13 # energy   -0.74977840 # occ.  2.00000000
 
ion      s     py     pz     px    dxy    dyz    dz2    dxz  x2-y2    tot
    1  0.012  0.000  0.000  0.000  0.001  0.000  0.563  0.000  0.004  0.580
    2  0.003  0.002  0.069  0.001  0.000  0.000  0.000  0.000  0.000  0.074
    3  0.003  0.002  0.069  0.001  0.000  0.000  0.000  0.000  0.000  0.074
tot    0.017  0.004  0.137  0.001  0.001  0.000  0.563  0.000  0.004  0.728
 
band    14 # energy    1.96281516 # occ.  0.00000000
 
ion      s     py     pz     px    dxy    dyz    dz2    dxz  x2-y2    tot
    1  0.000  0.000  0.000  0.000  0.000  0.269  0.000  0.108  0.000  0.377
    2  0.005  0.124  0.001  0.041  0.000  0.000  0.000  0.000  0.000  0.171
    3  0.005  0.124  0.001  0.041  0.000  0.000  0.000  0.000  0.000  0.171
tot    0.009  0.249  0.001  0.083  0.000  0.269  0.000  0.108  0.000  0.719
 
band    15 # energy    2.11141054 # occ.  0.00000000
 
ion      s     py     pz     px    dxy    dyz    dz2    dxz  x2-y2    tot
    1  0.000  0.000  0.000  0.000  0.000  0.105  0.000  0.259  0.000  0.364
    2  0.000  0.046  0.000  0.137  0.000  0.000  0.000  0.000  0.000  0.183
    3  0.000  0.046  0.000  0.137  0.000  0.000  0.000  0.000  0.000  0.183
tot    0.000  0.091  0.000  0.274  0.000  0.105  0.000  0.259  0.000  0.729
 
band    16 # energy    2.14881790 # occ.  0.00000000
 
ion      s     py     pz     px    dxy    dyz    dz2    dxz  x2-y2    tot
    1  0.001  0.007  0.000  0.003  0.075  0.000  0.006  0.000  0.224  0.316
    2  0.003  0.159  0.001  0.053  0.000  0.000  0.000  0.000  0.000  0.216
    3  0.003  0.159  0.001  0.053  0.000  0.000  0.000  0.000  0.000  0.216
tot    0.008  0.325  0.002  0.109  0.075  0.000  0.006  0.000  0.224  0.749
 
band    17 # energy    2.22552146 # occ.  0.00000000
 
ion      s     py     pz     px    dxy    dyz    dz2    dxz  x2-y2    tot
    1  0.000  0.003  0.000  0.008  0.226  0.000  0.000  0.000  0.076  0.313
    2  0.000  0.056  0.000  0.169  0.000  0.000  0.000  0.000  0.000  0.225
    3  0.000  0.056  0.000  0.169  0.000  0.000  0.000  0.000  0.000  0.225
tot    0.000  0.116  0.000  0.346  0.226  0.000  0.000  0.000  0.076  0.763
 
band    18 # energy    4.61696623 # occ.  0.00000000
 
ion      s     py     pz     px    dxy    dyz    dz2    dxz  x2-y2    tot
    1  0.021  0.000  0.000  0.000  0.000  0.000  0.021  0.000  0.001  0.043
    2  0.017  0.003  0.003  0.001  0.000  0.000  0.000  0.000  0.000  0.023
    3  0.017  0.003  0.003  0.001  0.000  0.000  0.000  0.000  0.000  0.023
tot    0.054  0.005  0.007  0.002  0.000  0.000  0.021  0.000  0.001  0.090
 
band    19 # energy    5.16057740 # occ.  0.00000000
 
ion      s     py     pz     px    dxy    dyz    dz2    dxz  x2-y2    tot
    1  0.000  0.000  0.001  0.000  0.000  0.001  0.000  0.000  0.000  0.002
    2  0.003  0.000  0.024  0.000  0.000  0.000  0.000  0.000  0.000  0.028
    3  0.003  0.000  0.024  0.000  0.000  0.000  0.000  0.000  0.000  0.028
tot    0.007  0.000  0.050  0.000  0.000  0.001  0.000  0.000  0.000  0.058
 
band    20 # energy    5.69296398 # occ.  0.00000000
 
ion      s     py     pz     px    dxy    dyz    dz2    dxz  x2-y2    tot
    1  0.125  0.001  0.000  0.000  0.001  0.000  0.003  0.000  0.002  0.132
    2  0.071  0.005  0.019  0.002  0.000  0.000  0.000  0.000  0.000  0.097
    3  0.071  0.005  0.019  0.002  0.000  0.000  0.000  0.000  0.000  0.097
tot    0.267  0.012  0.038  0.004  0.001  0.000  0.003  0.000  0.002  0.327
 
band    21 # energy    6.67118159 # occ.  0.00000000
 
ion      s     py     pz     px    dxy    dyz    dz2    dxz  x2-y2    tot
    1  0.000  0.000  0.000  0.000  0.001  0.000  0.021  0.000  0.003  0.025
    2  0.000  0.000  0.020  0.000  0.000  0.000  0.000  0.000  0.000  0.020
    3  0.000  0.000  0.020  0.000  0.000  0.000  0.000  0.000  0.000  0.020
tot    0.001  0.000  0.039  0.000  0.001  0.000  0.021  0.000  0.003  0.065
 
band    22 # energy    8.56141742 # occ.  0.00000000
 
ion      s     py     pz     px    dxy    dyz    dz2    dxz  x2-y2    tot
    1  0.000  0.000  0.052  0.000  0.000  0.000  0.000  0.000  0.000  0.052
    2  0.071  0.007  0.000  0.002  0.000  0.000  0.000  0.000  0.000  0.080
    3  0.071  0.007  0.000  0.002  0.000  0.000  0.000  0.000  0.000  0.080
tot    0.143  0.013  0.052  0.004  0.000  0.000  0.000  0.000  0.000  0.213
 
band    23 # energy    8.83954440 # occ.  0.00000000
 
ion      s     py     pz     px    dxy    dyz    dz2    dxz  x2-y2    tot
    1  0.000  0.000  0.003  0.000  0.000  0.000  0.000  0.000  0.000  0.003
    2  0.013  0.000  0.024  0.000  0.000  0.000  0.000  0.000  0.000  0.038
    3  0.013  0.000  0.024  0.000  0.000  0.000  0.000  0.000  0.000  0.038
tot    0.026  0.001  0.052  0.000  0.000  0.000  0.000  0.000  0.000  0.079
 
band    24 # energy    9.99376897 # occ.  0.00000000
 
ion      s     py     pz     px    dxy    dyz    dz2    dxz  x2-y2    tot
    1  0.041  0.044  0.000  0.015  0.004  0.000  0.009  0.000  0.011  0.124
    2  0.002  0.003  0.005  0.002  0.000  0.000  0.000  0.000  0.000  0.012
    3  0.002  0.003  0.005  0.002  0.000  0.000  0.000  0.000  0.000  0.012
tot    0.045  0.050  0.011  0.019  0.004  0.000  0.009  0.000  0.011  0.148
 

 k-point     2 :    0.09375000 0.03125000 0.00000000     weight = 0.01562500

band     1 # energy  -61.56698245 # occ.  2.00000000
 
ion      s     py     pz     px    dxy    dyz    dz2    dxz  x2-y2    tot
    1  0.995  0.000  0.000  0.000  0.000  0.000  0.000  0.000  0.000  0.995
    2  0.000  0.000  0.000  0.000  0.000  0.000  0.000  0.000  0.000  0.000
    3  0.000  0.000  0.000  0.000  0.000  0.000  0.000  0.000  0.000  0.000
tot    0.995  0.000  0.000  0.000  0.000  0.000  0.000  0.000  0.000  0.995
 
band     2 # energy  -35.72757592 # occ.  2.00000000
 
ion      s     py     pz     px    dxy    dyz    dz2    dxz  x2-y2    tot
    1  0.000  0.000  0.979  0.000  0.000  0.000  0.000  0.000  0.000  0.979
    2  0.002  0.000  0.000  0.000  0.000  0.000  0.000  0.000  0.000  0.002
    3  0.002  0.000  0.000  0.000  0.000  0.000  0.000  0.000  0.000  0.002
tot    0.003  0.000  0.980  0.000  0.000  0.000  0.000  0.000  0.000  0.983
 
band     3 # energy  -35.57460417 # occ.  2.00000000
 
ion      s     py     pz     px    dxy    dyz    dz2    dxz  x2-y2    tot
    1  0.000  0.474  0.000  0.517  0.000  0.000  0.000  0.000  0.000  0.991
    2  0.000  0.000  0.000  0.000  0.000  0.000  0.000  0.000  0.000  0.000
    3  0.000  0.000  0.000  0.000  0.000  0.000  0.000  0.000  0.000  0.000
tot    0.000  0.474  0.000  0.518  0.000  0.000  0.000  0.000  0.000  0.992
 
band     4 # energy  -35.53927137 # occ.  2.00000000
 
ion      s     py     pz     px    dxy    dyz    dz2    dxz  x2-y2    tot
    1  0.000  0.519  0.000  0.475  0.000  0.000  0.000  0.000  0.000  0.993
    2  0.000  0.000  0.000  0.000  0.000  0.000  0.000  0.000  0.000  0.000
    3  0.000  0.000  0.000  0.000  0.000  0.000  0.000  0.000  0.000  0.000
tot    0.000  0.519  0.000  0.475  0.000  0.000  0.000  0.000  0.000  0.994
 
band     5 # energy  -14.62789493 # occ.  2.00000000
 
ion      s     py     pz     px    dxy    dyz    dz2    dxz  x2-y2    tot
    1  0.075  0.001  0.000  0.002  0.001  0.000  0.000  0.000  0.001  0.080
    2  0.278  0.000  0.005  0.000  0.000  0.000  0.000  0.000  0.000  0.284
    3  0.278  0.000  0.005  0.000  0.000  0.000  0.000  0.000  0.000  0.284
tot    0.631  0.002  0.010  0.002  0.001  0.000  0.000  0.000  0.001  0.648
 
band     6 # energy  -13.43364996 # occ.  2.00000000
 
ion      s     py     pz     px    dxy    dyz    dz2    dxz  x2-y2    tot
    1  0.000  0.000  0.031  0.000  0.000  0.004  0.000  0.004  0.000  0.039
    2  0.315  0.000  0.000  0.000  0.000  0.000  0.000  0.000  0.000  0.316
    3  0.315  0.000  0.000  0.000  0.000  0.000  0.000  0.000  0.000  0.316
tot    0.630  0.000  0.032  0.000  0.000  0.004  0.000  0.004  0.000  0.670
 
band     7 # energy   -6.12990762 # occ.  2.00000000
 
ion      s     py     pz     px    dxy    dyz    dz2    dxz  x2-y2    tot
    1  0.082  0.002  0.000  0.003  0.007  0.000  0.166  0.000  0.005  0.266
    2  0.016  0.001  0.130  0.001  0.000  0.000  0.000  0.000  0.000  0.148
    3  0.016  0.001  0.130  0.001  0.000  0.000  0.000  0.000  0.000  0.148
tot    0.115  0.004  0.260  0.004  0.007  0.000  0.166  0.000  0.005  0.561
 
band     8 # energy   -3.73159539 # occ.  2.00000000
 
ion      s     py     pz     px    dxy    dyz    dz2    dxz  x2-y2    tot
    1  0.021  0.001  0.000  0.004  0.238  0.000  0.001  0.000  0.220  0.484
    2  0.007  0.056  0.000  0.061  0.000  0.000  0.000  0.000  0.000  0.124
    3  0.007  0.056  0.000  0.061  0.000  0.000  0.000  0.000  0.000  0.124
tot    0.034  0.113  0.001  0.126  0.238  0.000  0.001  0.000  0.220  0.733
 
band     9 # energy   -3.20738518 # occ.  2.00000000
 
ion      s     py     pz     px    dxy    dyz    dz2    dxz  x2-y2    tot
    1  0.000  0.000  0.003  0.000  0.000  0.129  0.000  0.161  0.000  0.293
    2  0.000  0.031  0.115  0.042  0.000  0.000  0.000  0.000  0.000  0.189
    3  0.000  0.031  0.115  0.042  0.000  0.000  0.000  0.000  0.000  0.189
tot    0.001  0.063  0.233  0.085  0.000  0.129  0.000  0.161  0.000  0.672
 
band    10 # energy   -3.14532518 # occ.  2.00000000
 
ion      s     py     pz     px    dxy    dyz    dz2    dxz  x2-y2    tot
    1  0.000  0.005  0.000  0.002  0.244  0.000  0.000  0.000  0.267  0.519
    2  0.000  0.065  0.000  0.060  0.000  0.000  0.000  0.000  0.000  0.125
    3  0.000  0.065  0.000  0.060  0.000  0.000  0.000  0.000  0.000  0.125
tot    0.000  0.135  0.000  0.122  0.244  0.000  0.000  0.000  0.267  0.770
 
band    11 # energy   -2.53518143 # occ.  2.00000000
 
ion      s     py     pz     px    dxy    dyz    dz2    dxz  x2-y2    tot
    1  0.000  0.000  0.000  0.000  0.000  0.255  0.000  0.219  0.000  0.474
    2  0.000  0.091  0.001  0.067  0.000  0.000  0.000  0.000  0.000  0.159
    3  0.000  0.091  0.001  0.067  0.000  0.000  0.000  0.000  0.000  0.159
tot    0.001  0.183  0.002  0.133  0.000  0.255  0.000  0.219  0.000  0.793
 
band    12 # energy   -1.80440043 # occ.  2.00000000
 
ion      s     py     pz     px    dxy    dyz    dz2    dxz  x2-y2    tot
    1  0.000  0.000  0.032  0.000  0.000  0.065  0.000  0.052  0.000  0.149
    2  0.001  0.047  0.131  0.064  0.000  0.000  0.000  0.000  0.000  0.242
    3  0.001  0.047  0.131  0.064  0.000  0.000  0.000  0.000  0.000  0.242
tot    0.001  0.094  0.293  0.127  0.000  0.065  0.000  0.052  0.000  0.633
 
band    13 # energy   -0.83702271 # occ.  2.00000000
 
ion      s     py     pz     px    dxy    dyz    dz2    dxz  x2-y2    tot
    1  0.013  0.000  0.000  0.000  0.017  0.000  0.540  0.000  0.014  0.584
    2  0.004  0.005  0.063  0.006  0.000  0.000  0.000  0.000  0.000  0.078
    3  0.004  0.005  0.063  0.006  0.000  0.000  0.000  0.000  0.000  0.078
tot    0.021  0.011  0.127  0.012  0.017  0.000  0.540  0.000  0.014  0.741
 
band    14 # energy    1.83283173 # occ.  0.00000000
 
ion      s     py     pz     px    dxy    dyz    dz2    dxz  x2-y2    tot
    1  0.000  0.000  0.001  0.000  0.000  0.161  0.000  0.275  0.000  0.437
    2  0.015  0.062  0.004  0.059  0.000  0.000  0.000  0.000  0.000  0.140
    3  0.015  0.062  0.004  0.059  0.000  0.000  0.000  0.000  0.000  0.140
tot    0.030  0.124  0.008  0.118  0.000  0.161  0.000  0.275  0.000  0.716
 
band    15 # energy    1.83767232 # occ.  0.00000000
 
ion      s     py     pz     px    dxy    dyz    dz2    dxz  x2-y2    tot
    1  0.002  0.003  0.000  0.005  0.162  0.000  0.035  0.000  0.143  0.350
    2  0.008  0.079  0.004  0.090  0.000  0.000  0.000  0.000  0.000  0.182
    3  0.008  0.079  0.004  0.090  0.000  0.000  0.000  0.000  0.000  0.182
tot    0.018  0.162  0.009  0.185  0.162  0.000  0.035  0.000  0.143  0.714
 
band    16 # energy    2.07345225 # occ.  0.00000000
 
ion      s     py     pz     px    dxy    dyz    dz2    dxz  x2-y2    tot
    1  0.000  0.006  0.000  0.004  0.153  0.000  0.002  0.000  0.174  0.339
    2  0.000  0.112  0.000  0.098  0.000  0.000  0.000  0.000  0.000  0.209
    3  0.000  0.112  0.000  0.098  0.000  0.000  0.000  0.000  0.000  0.209
tot    0.000  0.230  0.000  0.199  0.153  0.000  0.002  0.000  0.174  0.758
 
band    17 # energy    2.34908908 # occ.  0.00000000
 
ion      s     py     pz     px    dxy    dyz    dz2    dxz  x2-y2    tot
    1  0.000  0.000  0.000  0.000  0.000  0.243  0.000  0.143  0.000  0.386
    2  0.000  0.090  0.000  0.089  0.000  0.000  0.000  0.000  0.000  0.180
    3  0.000  0.090  0.000  0.089  0.000  0.000  0.000  0.000  0.000  0.180
tot    0.000  0.181  0.001  0.178  0.000  0.243  0.000  0.143  0.000  0.746
 
band    18 # energy    4.83849095 # occ.  0.00000000
 
ion      s     py     pz     px    dxy    dyz    dz2    dxz  x2-y2    tot
    1  0.013  0.001  0.000  0.001  0.002  0.000  0.021  0.000  0.001  0.039
    2  0.010  0.003  0.005  0.003  0.000  0.000  0.000  0.000  0.000  0.021
    3  0.010  0.003  0.005  0.003  0.000  0.000  0.000  0.000  0.000  0.021
tot    0.033  0.007  0.009  0.007  0.002  0.000  0.021  0.000  0.001  0.081
 
band    19 # energy    5.34614727 # occ.  0.00000000
 
ion      s     py     pz     px    dxy    dyz    dz2    dxz  x2-y2    tot
    1  0.000  0.000  0.001  0.000  0.000  0.001  0.000  0.001  0.000  0.004
    2  0.003  0.000  0.025  0.000  0.000  0.000  0.000  0.000  0.000  0.028
    3  0.003  0.000  0.025  0.000  0.000  0.000  0.000  0.000  0.000  0.028
tot    0.005  0.001  0.052  0.001  0.000  0.001  0.000  0.001  0.000  0.061
 
band    20 # energy    6.24178847 # occ.  0.00000000
 
ion      s     py     pz     px    dxy    dyz    dz2    dxz  x2-y2    tot
    1  0.119  0.003  0.000  0.003  0.005  0.000  0.010  0.000  0.004  0.144
    2  0.067  0.011  0.012  0.011  0.000  0.000  0.000  0.000  0.000  0.100
    3  0.067  0.011  0.012  0.011  0.000  0.000  0.000  0.000  0.000  0.100
tot    0.252  0.024  0.024  0.025  0.005  0.000  0.010  0.000  0.004  0.344
 
band    21 # energy    6.91683771 # occ.  0.00000000
 
ion      s     py     pz     px    dxy    dyz    dz2    dxz  x2-y2    tot
    1  0.006  0.000  0.000  0.000  0.009  0.000  0.016  0.000  0.009  0.040
    2  0.001  0.000  0.025  0.000  0.000  0.000  0.000  0.000  0.000  0.027
    3  0.001  0.000  0.025  0.000  0.000  0.000  0.000  0.000  0.000  0.027
tot    0.008  0.000  0.050  0.001  0.009  0.000  0.016  0.000  0.009  0.094
 
band    22 # energy    8.96413334 # occ.  0.00000000
 
ion      s     py     pz     px    dxy    dyz    dz2    dxz  x2-y2    tot
    1  0.000  0.000  0.003  0.000  0.000  0.000  0.000  0.000  0.000  0.003
    2  0.001  0.001  0.021  0.001  0.000  0.000  0.000  0.000  0.000  0.024
    3  0.001  0.001  0.021  0.001  0.000  0.000  0.000  0.000  0.000  0.024
tot    0.003  0.001  0.046  0.001  0.000  0.000  0.000  0.000  0.000  0.051
 
band    23 # energy    9.15833291 # occ.  0.00000000
 
ion      s     py     pz     px    dxy    dyz    dz2    dxz  x2-y2    tot
    1  0.000  0.000  0.050  0.000  0.000  0.001  0.000  0.005  0.000  0.055
    2  0.067  0.013  0.004  0.014  0.000  0.000  0.000  0.000  0.000  0.098
    3  0.067  0.013  0.004  0.014  0.000  0.000  0.000  0.000  0.000  0.098
tot    0.134  0.025  0.058  0.027  0.000  0.001  0.000  0.005  0.000  0.251
 
band    24 # energy    9.57966813 # occ.  0.00000000
 
ion      s     py     pz     px    dxy    dyz    dz2    dxz  x2-y2    tot
    1  0.083  0.020  0.000  0.025  0.005  0.000  0.007  0.000  0.004  0.143
    2  0.001  0.001  0.015  0.009  0.000  0.000  0.000  0.000  0.000  0.026
    3  0.001  0.001  0.015  0.009  0.000  0.000  0.000  0.000  0.000  0.026
tot    0.085  0.022  0.030  0.043  0.005  0.000  0.007  0.000  0.004  0.196
 

 k-point     3 :    0.15625000 0.03125000 0.00000000     weight = 0.01562500

band     1 # energy  -61.56145733 # occ.  2.00000000
 
ion      s     py     pz     px    dxy    dyz    dz2    dxz  x2-y2    tot
    1  0.995  0.000  0.000  0.000  0.000  0.000  0.000  0.000  0.000  0.995
    2  0.000  0.000  0.000  0.000  0.000  0.000  0.000  0.000  0.000  0.000
    3  0.000  0.000  0.000  0.000  0.000  0.000  0.000  0.000  0.000  0.000
tot    0.995  0.000  0.000  0.000  0.000  0.000  0.000  0.000  0.000  0.995
 
band     2 # energy  -35.71651944 # occ.  2.00000000
 
ion      s     py     pz     px    dxy    dyz    dz2    dxz  x2-y2    tot
    1  0.000  0.000  0.980  0.000  0.000  0.000  0.000  0.000  0.000  0.980
    2  0.001  0.000  0.000  0.000  0.000  0.000  0.000  0.000  0.000  0.002
    3  0.001  0.000  0.000  0.000  0.000  0.000  0.000  0.000  0.000  0.002
tot    0.003  0.000  0.981  0.000  0.000  0.000  0.000  0.000  0.000  0.984
 
band     3 # energy  -35.63100130 # occ.  2.00000000
 
ion      s     py     pz     px    dxy    dyz    dz2    dxz  x2-y2    tot
    1  0.000  0.379  0.000  0.609  0.000  0.000  0.000  0.000  0.000  0.988
    2  0.000  0.000  0.000  0.000  0.000  0.000  0.000  0.000  0.000  0.001
    3  0.000  0.000  0.000  0.000  0.000  0.000  0.000  0.000  0.000  0.001
tot    0.001  0.379  0.000  0.609  0.000  0.000  0.000  0.000  0.000  0.989
 
band     4 # energy  -35.55303937 # occ.  2.00000000
 
ion      s     py     pz     px    dxy    dyz    dz2    dxz  x2-y2    tot
    1  0.000  0.612  0.000  0.381  0.000  0.000  0.000  0.000  0.000  0.993
    2  0.000  0.000  0.000  0.000  0.000  0.000  0.000  0.000  0.000  0.000
    3  0.000  0.000  0.000  0.000  0.000  0.000  0.000  0.000  0.000  0.000
tot    0.000  0.612  0.000  0.381  0.000  0.000  0.000  0.000  0.000  0.993
 
band     5 # energy  -14.38674719 # occ.  2.00000000
 
ion      s     py     pz     px    dxy    dyz    dz2    dxz  x2-y2    tot
    1  0.067  0.003  0.000  0.004  0.003  0.000  0.000  0.000  0.002  0.079
    2  0.282  0.001  0.005  0.001  0.000  0.000  0.000  0.000  0.000  0.289
    3  0.282  0.001  0.005  0.001  0.000  0.000  0.000  0.000  0.000  0.289
tot    0.632  0.004  0.010  0.006  0.003  0.000  0.000  0.000  0.002  0.656
 
band     6 # energy  -13.33499999 # occ.  2.00000000
 
ion      s     py     pz     px    dxy    dyz    dz2    dxz  x2-y2    tot
    1  0.000  0.000  0.027  0.000  0.000  0.007  0.000  0.011  0.000  0.045
    2  0.316  0.000  0.001  0.000  0.000  0.000  0.000  0.000  0.000  0.318
    3  0.316  0.000  0.001  0.000  0.000  0.000  0.000  0.000  0.000  0.318
tot    0.633  0.001  0.029  0.001  0.000  0.007  0.000  0.011  0.000  0.681
 
band     7 # energy   -5.89579744 # occ.  2.00000000
 
ion      s     py     pz     px    dxy    dyz    dz2    dxz  x2-y2    tot
    1  0.061  0.004  0.000  0.006  0.030  0.000  0.151  0.000  0.016  0.268
    2  0.013  0.003  0.132  0.004  0.000  0.000  0.000  0.000  0.000  0.151
    3  0.013  0.003  0.132  0.004  0.000  0.000  0.000  0.000  0.000  0.151
tot    0.086  0.009  0.264  0.015  0.030  0.000  0.151  0.000  0.016  0.571
 
band     8 # energy   -4.13849830 # occ.  2.00000000
 
ion      s     py     pz     px    dxy    dyz    dz2    dxz  x2-y2    tot
    1  0.049  0.001  0.000  0.007  0.209  0.000  0.005  0.000  0.137  0.407
    2  0.014  0.046  0.004  0.073  0.000  0.000  0.000  0.000  0.000  0.138
    3  0.014  0.046  0.004  0.073  0.000  0.000  0.000  0.000  0.000  0.138
tot    0.077  0.093  0.009  0.152  0.209  0.000  0.005  0.000  0.137  0.682
 
band     9 # energy   -3.68093117 # occ.  2.00000000
 
ion      s     py     pz     px    dxy    dyz    dz2    dxz  x2-y2    tot
    1  0.000  0.000  0.000  0.000  0.000  0.094  0.000  0.214  0.000  0.307
    2  0.001  0.031  0.087  0.066  0.000  0.000  0.000  0.000  0.000  0.184
    3  0.001  0.031  0.087  0.066  0.000  0.000  0.000  0.000  0.000  0.184
tot    0.002  0.061  0.174  0.131  0.000  0.094  0.000  0.214  0.000  0.676
 
band    10 # energy   -2.90350530 # occ.  2.00000000
 
ion      s     py     pz     px    dxy    dyz    dz2    dxz  x2-y2    tot
    1  0.000  0.010  0.000  0.002  0.178  0.000  0.001  0.000  0.288  0.479
    2  0.000  0.085  0.000  0.055  0.000  0.000  0.000  0.000  0.000  0.140
    3  0.000  0.085  0.000  0.055  0.000  0.000  0.000  0.000  0.000  0.140
tot    0.000  0.179  0.000  0.113  0.178  0.000  0.001  0.000  0.288  0.759
 
band    11 # energy   -2.85791472 # occ.  2.00000000
 
ion      s     py     pz     px    dxy    dyz    dz2    dxz  x2-y2    tot
    1  0.000  0.000  0.000  0.000  0.000  0.308  0.000  0.146  0.000  0.455
    2  0.001  0.110  0.003  0.048  0.000  0.000  0.000  0.000  0.000  0.162
    3  0.001  0.110  0.003  0.048  0.000  0.000  0.000  0.000  0.000  0.162
tot    0.001  0.220  0.006  0.097  0.000  0.308  0.000  0.146  0.000  0.778
 
band    12 # energy   -1.78738994 # occ.  2.00000000
 
ion      s     py     pz     px    dxy    dyz    dz2    dxz  x2-y2    tot
    1  0.000  0.000  0.039  0.000  0.000  0.022  0.000  0.006  0.000  0.066
    2  0.003  0.036  0.150  0.077  0.000  0.000  0.000  0.000  0.000  0.266
    3  0.003  0.036  0.150  0.077  0.000  0.000  0.000  0.000  0.000  0.266
tot    0.006  0.072  0.339  0.153  0.000  0.022  0.000  0.006  0.000  0.597
 
band    13 # energy   -1.04855325 # occ.  2.00000000
 
ion      s     py     pz     px    dxy    dyz    dz2    dxz  x2-y2    tot
    1  0.013  0.001  0.000  0.001  0.063  0.000  0.479  0.000  0.032  0.588
    2  0.007  0.009  0.052  0.014  0.000  0.000  0.000  0.000  0.000  0.082
    3  0.007  0.009  0.052  0.014  0.000  0.000  0.000  0.000  0.000  0.082
tot    0.026  0.019  0.105  0.029  0.063  0.000  0.479  0.000  0.032  0.753
 
band    14 # energy    1.54355639 # occ.  0.00000000
 
ion      s     py     pz     px    dxy    dyz    dz2    dxz  x2-y2    tot
    1  0.002  0.001  0.000  0.004  0.174  0.000  0.107  0.000  0.117  0.406
    2  0.009  0.048  0.012  0.074  0.000  0.000  0.000  0.000  0.000  0.141
    3  0.009  0.048  0.012  0.074  0.000  0.000  0.000  0.000  0.000  0.141
tot    0.019  0.097  0.023  0.151  0.174  0.000  0.107  0.000  0.117  0.689
 
band    15 # energy    1.83654839 # occ.  0.00000000
 
ion      s     py     pz     px    dxy    dyz    dz2    dxz  x2-y2    tot
    1  0.000  0.000  0.002  0.000  0.000  0.121  0.000  0.375  0.000  0.498
    2  0.024  0.035  0.013  0.036  0.000  0.000  0.000  0.000  0.000  0.109
    3  0.024  0.035  0.013  0.036  0.000  0.000  0.000  0.000  0.000  0.109
tot    0.047  0.071  0.029  0.073  0.000  0.121  0.000  0.375  0.000  0.716
 
band    16 # energy    1.86442035 # occ.  0.00000000
 
ion      s     py     pz     px    dxy    dyz    dz2    dxz  x2-y2    tot
    1  0.001  0.007  0.000  0.003  0.146  0.000  0.007  0.000  0.228  0.392
    2  0.000  0.113  0.000  0.069  0.000  0.000  0.000  0.000  0.000  0.183
    3  0.000  0.113  0.000  0.069  0.000  0.000  0.000  0.000  0.000  0.183
tot    0.001  0.234  0.001  0.140  0.146  0.000  0.007  0.000  0.228  0.757
 
band    17 # energy    2.67832399 # occ.  0.00000000
 
ion      s     py     pz     px    dxy    dyz    dz2    dxz  x2-y2    tot
    1  0.000  0.000  0.000  0.000  0.000  0.314  0.000  0.099  0.000  0.414
    2  0.000  0.101  0.001  0.073  0.000  0.000  0.000  0.000  0.000  0.176
    3  0.000  0.101  0.001  0.073  0.000  0.000  0.000  0.000  0.000  0.176
tot    0.001  0.203  0.002  0.146  0.000  0.314  0.000  0.099  0.000  0.766
 
band    18 # energy    5.17886910 # occ.  0.00000000
 
ion      s     py     pz     px    dxy    dyz    dz2    dxz  x2-y2    tot
    1  0.009  0.001  0.000  0.001  0.003  0.000  0.021  0.000  0.002  0.038
    2  0.008  0.003  0.005  0.004  0.000  0.000  0.000  0.000  0.000  0.019
    3  0.008  0.003  0.005  0.004  0.000  0.000  0.000  0.000  0.000  0.019
tot    0.025  0.006  0.010  0.009  0.003  0.000  0.021  0.000  0.002  0.076
 
band    19 # energy    5.66728770 # occ.  0.00000000
 
ion      s     py     pz     px    dxy    dyz    dz2    dxz  x2-y2    tot
    1  0.000  0.000  0.001  0.000  0.000  0.002  0.000  0.003  0.000  0.006
    2  0.002  0.000  0.027  0.001  0.000  0.000  0.000  0.000  0.000  0.029
    3  0.002  0.000  0.027  0.001  0.000  0.000  0.000  0.000  0.000  0.029
tot    0.004  0.001  0.054  0.001  0.000  0.002  0.000  0.003  0.000  0.065
 
band    20 # energy    6.82740101 # occ.  0.00000000
 
ion      s     py     pz     px    dxy    dyz    dz2    dxz  x2-y2    tot
    1  0.075  0.003  0.000  0.005  0.006  0.000  0.021  0.000  0.002  0.113
    2  0.043  0.009  0.002  0.010  0.000  0.000  0.000  0.000  0.000  0.065
    3  0.043  0.009  0.002  0.010  0.000  0.000  0.000  0.000  0.000  0.065
tot    0.162  0.020  0.004  0.026  0.006  0.000  0.021  0.000  0.002  0.242
 
band    21 # energy    7.49778572 # occ.  0.00000000
 