<?xml version="1.0" encoding="ISO-8859-1"?>
<modeling>
 <generator>
  <i name="program" type="string">vasp </i>
  <i name="version" type="string">5.4.4.18Apr17-6-g9f103f2a35  </i>
  <i name="subversion" type="string">(build Apr 28 2023 10:04:10) complex            parallel </i>
  <i name="platform" type="string">LinuxIFC </i>
  <i name="date" type="string">2023 11 23 </i>
  <i name="time" type="string">15:39:50 </i>
 </generator>
 <incar>
  <i type="int" name="ISTART">     1</i>
  <i type="string" name="PREC">normal</i>
  <i type="logical" name="ADDGRID"> T  </i>
  <i type="int" name="ISPIN">     1</i>
  <i type="int" name="ICHARG">    11</i>
  <i type="int" name="NELM">    60</i>
  <i name="EDIFF">      0.00000001</i>
  <i type="int" name="NEDOS">  2001</i>
  <i type="logical" name="LREAL"> F  </i>
  <i name="EMIN">    -11.00000000</i>
  <i name="EMAX">      9.00000000</i>
  <i type="int" name="ISMEAR">     0</i>
  <i name="SIGMA">      0.05000000</i>
  <i type="logical" name="LWAVE"> T  </i>
  <i type="logical" name="LCHARG"> T  </i>
  <v type="int" name="KPOINT_BSE">    -1     0     0     0</v>
  <i type="int" name="NELM">    60</i>
 </incar>
 <structure name="primitive_cell" >
  <crystal>
   <varray name="basis" >
    <v>       3.18386047       0.00000000       0.00000000 </v>
    <v>      -1.59193023       2.75730405       0.00000000 </v>
    <v>       0.00000000       0.00000000      15.00000000 </v>
   </varray>
   <i name="volume">    131.68307038 </i>
   <varray name="rec_basis" >
    <v>       0.31408412       0.18133655       0.00000000 </v>
    <v>       0.00000000       0.36267310       0.00000000 </v>
    <v>       0.00000000       0.00000000       0.06666667 </v>
   </varray>
  </crystal>
  <varray name="positions" >
   <v>      -0.33333331       0.33333334       0.25000000 </v>
   <v>       0.33333334      -0.33333331       0.35415213 </v>
   <v>       0.33333334      -0.33333331       0.14584787 </v>
  </varray>
 </structure>
 <varray name="primitive_index" >
  <v type="int" >        1 </v>
  <v type="int" >        2 </v>
  <v type="int" >        3 </v>
 </varray>
 <kpoints>
  <generation param="Monkhorst-Pack">
   <v type="int" name="divisions">      16       16        1 </v>
   <v name="usershift">      0.00000000       0.00000000       0.00000000 </v>
   <v name="genvec1">      0.06250000       0.00000000       0.00000000 </v>
   <v name="genvec2">      0.00000000       0.06250000       0.00000000 </v>
   <v name="genvec3">      0.00000000       0.00000000       1.00000000 </v>
   <v name="shift">      0.50000000       0.50000000       0.00000000 </v>
  </generation>
  <varray name="kpointlist" >
   <v>       0.03125000       0.03125000       0.00000000 </v>
   <v>       0.09375000       0.03125000       0.00000000 </v>
   <v>       0.15625000       0.03125000       0.00000000 </v>
   <v>       0.21875000       0.03125000       0.00000000 </v>
   <v>       0.28125000       0.03125000       0.00000000 </v>
   <v>       0.34375000       0.03125000       0.00000000 </v>
   <v>       0.40625000       0.03125000       0.00000000 </v>
   <v>       0.46875000       0.03125000       0.00000000 </v>
   <v>      -0.46875000       0.03125000       0.00000000 </v>
   <v>      -0.40625000       0.03125000       0.00000000 </v>
   <v>      -0.34375000       0.03125000       0.00000000 </v>
   <v>      -0.28125000       0.03125000       0.00000000 </v>
   <v>      -0.21875000       0.03125000       0.00000000 </v>
   <v>      -0.15625000       0.03125000       0.00000000 </v>
   <v>      -0.09375000       0.03125000       0.00000000 </v>
   <v>      -0.03125000       0.03125000       0.00000000 </v>
   <v>       0.09375000       0.09375000       0.00000000 </v>
   <v>       0.15625000       0.09375000       0.00000000 </v>
   <v>       0.21875000       0.09375000       0.00000000 </v>
   <v>       0.28125000       0.09375000       0.00000000 </v>
   <v>       0.34375000       0.09375000       0.00000000 </v>
   <v>       0.40625000       0.09375000       0.00000000 </v>
   <v>       0.46875000       0.09375000       0.00000000 </v>
   <v>      -0.46875000       0.09375000       0.00000000 </v>
   <v>      -0.40625000       0.09375000       0.00000000 </v>
   <v>      -0.34375000       0.09375000       0.00000000 </v>
   <v>      -0.28125000       0.09375000       0.00000000 </v>
   <v>      -0.21875000       0.09375000       0.00000000 </v>
   <v>      -0.15625000       0.09375000       0.00000000 </v>
   <v>      -0.09375000       0.09375000       0.00000000 </v>
   <v>       0.15625000       0.15625000       0.00000000 </v>
   <v>       0.21875000       0.15625000       0.00000000 </v>
   <v>       0.28125000       0.15625000       0.00000000 </v>
   <v>       0.34375000       0.15625000       0.00000000 </v>
   <v>       0.40625000       0.15625000       0.00000000 </v>
   <v>       0.46875000       0.15625000       0.00000000 </v>
   <v>      -0.46875000       0.15625000       0.00000000 </v>
   <v>      -0.40625000       0.15625000       0.00000000 </v>
   <v>      -0.34375000       0.15625000       0.00000000 </v>
   <v>      -0.28125000       0.15625000       0.00000000 </v>
   <v>      -0.21875000       0.15625000       0.00000000 </v>
   <v>      -0.15625000       0.15625000       0.00000000 </v>
   <v>       0.21875000       0.21875000       0.00000000 </v>
   <v>       0.28125000       0.21875000       0.00000000 </v>
   <v>       0.34375000       0.21875000       0.00000000 </v>
   <v>       0.40625000       0.21875000       0.00000000 </v>
   <v>       0.46875000       0.21875000       0.00000000 </v>
   <v>      -0.46875000       0.21875000       0.00000000 </v>
   <v>      -0.40625000       0.21875000       0.00000000 </v>
   <v>      -0.34375000       0.21875000       0.00000000 </v>
   <v>      -0.28125000       0.21875000       0.00000000 </v>
   <v>      -0.21875000       0.21875000       0.00000000 </v>
   <v>       0.28125000       0.28125000       0.00000000 </v>
   <v>       0.34375000       0.28125000       0.00000000 </v>
   <v>       0.40625000       0.28125000       0.00000000 </v>
   <v>       0.46875000       0.28125000       0.00000000 </v>
   <v>      -0.46875000       0.28125000       0.00000000 </v>
   <v>      -0.40625000       0.28125000       0.00000000 </v>
   <v>      -0.34375000       0.28125000       0.00000000 </v>
   <v>      -0.28125000       0.28125000       0.00000000 </v>
   <v>       0.34375000       0.34375000       0.00000000 </v>
   <v>       0.40625000       0.34375000       0.00000000 </v>
   <v>       0.46875000       0.34375000       0.00000000 </v>
   <v>      -0.46875000       0.34375000       0.00000000 </v>
   <v>      -0.40625000       0.34375000       0.00000000 </v>
   <v>      -0.34375000       0.34375000       0.00000000 </v>
   <v>       0.40625000       0.40625000       0.00000000 </v>
   <v>       0.46875000       0.40625000       0.00000000 </v>
   <v>      -0.46875000       0.40625000       0.00000000 </v>
   <v>      -0.40625000       0.40625000       0.00000000 </v>
   <v>       0.46875000       0.46875000       0.00000000 </v>
   <v>      -0.46875000       0.46875000       0.00000000 </v>
  </varray>
  <varray name="weights" >
   <v>       0.00781250 </v>
   <v>       0.01562500 </v>
   <v>       0.01562500 </v>
   <v>       0.01562500 </v>
   <v>       0.01562500 </v>
   <v>       0.01562500 </v>
   <v>       0.01562500 </v>
   <v>       0.01562500 </v>
   <v>       0.01562500 </v>
   <v>       0.01562500 </v>
   <v>       0.01562500 </v>
   <v>       0.01562500 </v>
   <v>       0.01562500 </v>
   <v>       0.01562500 </v>
   <v>       0.01562500 </v>
   <v>       0.00781250 </v>
   <v>       0.00781250 </v>
   <v>       0.01562500 </v>
   <v>       0.01562500 </v>
   <v>       0.01562500 </v>
   <v>       0.01562500 </v>
   <v>       0.01562500 </v>
   <v>       0.01562500 </v>
   <v>       0.01562500 </v>
   <v>       0.01562500 </v>
   <v>       0.01562500 </v>
   <v>       0.01562500 </v>
   <v>       0.01562500 </v>
   <v>       0.01562500 </v>
   <v>       0.00781250 </v>
   <v>       0.00781250 </v>
   <v>       0.01562500 </v>
   <v>       0.01562500 </v>
   <v>       0.01562500 </v>
   <v>       0.01562500 </v>
   <v>       0.01562500 </v>
   <v>       0.01562500 </v>
   <v>       0.01562500 </v>
   <v>       0.01562500 </v>
   <v>       0.01562500 </v>
   <v>       0.01562500 </v>
   <v>       0.00781250 </v>
   <v>       0.00781250 </v>
   <v>       0.01562500 </v>
   <v>       0.01562500 </v>
   <v>       0.01562500 </v>
   <v>       0.01562500 </v>
   <v>       0.01562500 </v>
   <v>       0.01562500 </v>
   <v>       0.01562500 </v>
   <v>       0.01562500 </v>
   <v>       0.00781250 </v>
   <v>       0.00781250 </v>
   <v>       0.01562500 </v>
   <v>       0.01562500 </v>
   <v>       0.01562500 </v>
   <v>       0.01562500 </v>
   <v>       0.01562500 </v>
   <v>       0.01562500 </v>
   <v>       0.00781250 </v>
   <v>       0.00781250 </v>
   <v>       0.01562500 </v>
   <v>       0.01562500 </v>
   <v>       0.01562500 </v>
   <v>       0.01562500 </v>
   <v>       0.00781250 </v>
   <v>       0.00781250 </v>
   <v>       0.01562500 </v>
   <v>       0.01562500 </v>
   <v>       0.00781250 </v>
   <v>       0.00781250 </v>
   <v>       0.00781250 </v>
  </varray>
 </kpoints>
 <parameters>
  <separator name="general" >
   <i type="string" name="SYSTEM">unknown system</i>
   <i type="logical" name="LCOMPAT"> F  </i>
  </separator>
  <separator name="electronic" >
   <i type="string" name="PREC">normal</i>
   <i name="ENMAX">    258.68900000</i>
   <i name="ENAUG">    446.01400000</i>
   <i name="EDIFF">      0.00000001</i>
   <i type="int" name="IALGO">    38</i>
   <i type="int" name="IWAVPR">    10</i>
   <i type="int" name="NBANDS">    24</i>
   <i name="NELECT">     26.00000000</i>
   <i type="int" name="TURBO">     0</i>
   <i type="int" name="IRESTART">     0</i>
   <i type="int" name="NREBOOT">     0</i>
   <i type="int" name="NMIN">     0</i>
   <i name="EREF">      0.00000000</i>
   <separator name="electronic smearing" >
    <i type="int" name="ISMEAR">     0</i>
    <i name="SIGMA">      0.05000000</i>
    <i name="KSPACING">      0.50000000</i>
    <i type="logical" name="KGAMMA"> T  </i>
   </separator>
   <separator name="electronic projectors" >
    <i type="logical" name="LREAL"> F  </i>
    <v name="ROPT">      0.00000000      0.00000000</v>
    <i type="int" name="LMAXPAW">  -100</i>
    <i type="int" name="LMAXMIX">     2</i>
    <i type="logical" name="NLSPLINE"> F  </i>
   </separator>
   <separator name="electronic startup" >
    <i type="int" name="ISTART">     1</i>
    <i type="int" name="ICHARG">    11</i>
    <i type="int" name="INIWAV">     1</i>
   </separator>
   <separator name="electronic spin" >
    <i type="int" name="ISPIN">     1</i>
    <i type="logical" name="LNONCOLLINEAR"> F  </i>
    <v name="MAGMOM">      1.00000000      1.00000000      1.00000000</v>
    <i name="NUPDOWN">     -1.00000000</i>
    <i type="logical" name="LSORBIT"> F  </i>
    <v name="SAXIS">      0.00000000      0.00000000      1.00000000</v>
    <i type="logical" name="LSPIRAL"> F  </i>
    <v name="QSPIRAL">      0.00000000      0.00000000      0.00000000</v>
    <i type="logical" name="LZEROZ"> F  </i>
   </separator>
   <separator name="electronic exchange-correlation" >
    <i type="logical" name="LASPH"> F  </i>
    <i type="logical" name="LMETAGGA"> F  </i>
   </separator>
   <separator name="electronic convergence" >
    <i type="int" name="NELM">    60</i>
    <i type="int" name="NELMDL">     0</i>
    <i type="int" name="NELMIN">     2</i>
    <i name="ENINI">    258.68900000</i>
    <separator name="electronic convergence detail" >
     <i type="logical" name="LDIAG"> T  </i>
     <i type="logical" name="LSUBROT"> F  </i>
     <i name="WEIMIN">      0.00000000</i>
     <i name="EBREAK">      0.00000000</i>
     <i name="DEPER">      0.30000000</i>
     <i type="int" name="NRMM">     4</i>
     <i name="TIME">      0.40000000</i>
    </separator>
   </separator>
   <separator name="electronic mixer" >
    <i name="AMIX">      0.40000000</i>
    <i name="BMIX">      1.00000000</i>
    <i name="AMIN">      0.10000000</i>
    <i name="AMIX_MAG">      1.60000000</i>
    <i name="BMIX_MAG">      1.00000000</i>
    <separator name="electronic mixer details" >
     <i type="int" name="IMIX">     4</i>
     <i type="logical" name="MIXFIRST"> F  </i>
     <i type="int" name="MAXMIX">   -45</i>
     <i name="WC">    100.00000000</i>
     <i type="int" name="INIMIX">     1</i>
     <i type="int" name="MIXPRE">     1</i>
     <i type="int" name="MREMOVE">     5</i>
    </separator>
   </separator>
   <separator name="electronic dipolcorrection" >
    <i type="logical" name="LDIPOL"> F  </i>
    <i type="logical" name="LMONO"> F  </i>
    <i type="int" name="IDIPOL">     0</i>
    <i name="EPSILON">      1.00000000</i>
    <v name="DIPOL">   -100.00000000   -100.00000000   -100.00000000</v>
    <i name="EFIELD">      0.00000000</i>
   </separator>
  </separator>
  <separator name="grids" >
   <i type="int" name="NGX">    14</i>
   <i type="int" name="NGY">    14</i>
   <i type="int" name="NGZ">    60</i>
   <i type="int" name="NGXF">    28</i>
   <i type="int" name="NGYF">    28</i>
   <i type="int" name="NGZF">   120</i>
   <i type="logical" name="ADDGRID"> T  </i>
  </separator>
  <separator name="ionic" >
   <i type="int" name="NSW">     0</i>
   <i type="int" name="IBRION">    -1</i>
   <i type="int" name="MDALGO">     0</i>
   <i type="int" name="ISIF">     2</i>
   <i name="PSTRESS">      0.00000000</i>
   <i name="EDIFFG">      0.00000010</i>
   <i type="int" name="NFREE">     0</i>
   <i name="POTIM">      0.50000000</i>
   <i name="SMASS">     -3.00000000</i>
   <i name="SCALEE">      1.00000000</i>
  </separator>
  <separator name="ionic md" >
   <i name="TEBEG">      0.00010000</i>
   <i name="TEEND">      0.00010000</i>
   <i type="int" name="NBLOCK">     1</i>
   <i type="int" name="KBLOCK">     1</i>
   <i type="int" name="NPACO">   256</i>
   <i name="APACO">     16.00000000</i>
  </separator>
  <separator name="symmetry" >
   <i type="int" name="ISYM">     2</i>
   <i name="SYMPREC">      0.00001000</i>
  </separator>
  <separator name="dos" >
   <i type="int" name="LORBIT">     0</i>
   <v name="RWIGS">     -1.00000000     -1.00000000</v>
   <i type="int" name="NEDOS">  2001</i>
   <i name="EMIN">    -11.00000000</i>
   <i name="EMAX">      9.00000000</i>
   <i name="EFERMI">      0.00000000</i>
  </separator>
  <separator name="writing" >
   <i type="int" name="NWRITE">     2</i>
   <i type="logical" name="LWAVE"> T  </i>
   <i type="logical" name="LDOWNSAMPLE"> F  </i>
   <i type="logical" name="LCHARG"> T  </i>
   <i type="logical" name="LPARD"> F  </i>
   <i type="logical" name="LVTOT"> F  </i>
   <i type="logical" name="LVHAR"> F  </i>
   <i type="logical" name="LELF"> F  </i>
   <i type="logical" name="LOPTICS"> F  </i>
   <v name="STM">      0.00000000      0.00000000      0.00000000      0.00000000      0.00000000      0.00000000      0.00000000</v>
  </separator>
  <separator name="performance" >
   <i type="int" name="NPAR">    12</i>
   <i type="int" name="NSIM">     4</i>
   <i type="int" name="NBLK">    -1</i>
   <i type="logical" name="LPLANE"> T  </i>
   <i type="logical" name="LSCALAPACK"> T  </i>
   <i type="logical" name="LSCAAWARE"> F  </i>
   <i type="logical" name="LSCALU"> F  </i>
   <i type="logical" name="LASYNC"> F  </i>
   <i type="logical" name="LORBITALREAL"> F  </i>
  </separator>
  <separator name="miscellaneous" >
   <i type="int" name="IDIOT">     3</i>
   <i type="int" name="ISPECIAL">     0</i>
   <i type="logical" name="LMUSIC"> F  </i>
   <v name="POMASS">     95.94000000     32.06600000</v>
   <v name="DARWINR">      0.00000000      0.00000000</v>
   <v name="DARWINV">      1.00000000      1.00000000</v>
   <i type="logical" name="LCORR"> T  </i>
  </separator>
  <i type="logical" name="GGA_COMPAT"> T  </i>
  <i type="logical" name="LBERRY"> F  </i>
  <i type="int" name="ICORELEVEL">     0</i>
  <i type="logical" name="LDAU"> F  </i>
  <i type="int" name="I_CONSTRAINED_M">     0</i>
  <separator name="electronic exchange-correlation" >
   <i type="string" name="GGA">--</i>
   <i type="int" name="VOSKOWN">     0</i>
   <i type="logical" name="LHFCALC"> F  </i>
   <i type="string" name="PRECFOCK"></i>
   <i type="logical" name="LSYMGRAD"> F  </i>
   <i type="logical" name="LHFONE"> F  </i>
   <i type="logical" name="LRHFCALC"> F  </i>
   <i type="logical" name="LTHOMAS"> F  </i>
   <i type="logical" name="LMODELHF"> F  </i>
   <i name="ENCUT4O">     -1.00000000</i>
   <i type="int" name="EXXOEP">     0</i>
   <i type="int" name="FOURORBIT">     0</i>
   <i name="AEXX">      0.00000000</i>
   <i name="HFALPHA">      0.00000000</i>
   <i name="MCALPHA">      0.00000000</i>
   <i name="ALDAX">      1.00000000</i>
   <i name="AGGAX">      1.00000000</i>
   <i name="ALDAC">      1.00000000</i>
   <i name="AGGAC">      1.00000000</i>
   <i type="int" name="NKREDX">     1</i>
   <i type="int" name="NKREDY">     1</i>
   <i type="int" name="NKREDZ">     1</i>
   <i type="logical" name="SHIFTRED"> F  </i>
   <i type="logical" name="ODDONLY"> F  </i>
   <i type="logical" name="EVENONLY"> F  </i>
   <i type="int" name="LMAXFOCK">     0</i>
   <i type="int" name="NMAXFOCKAE">     0</i>
   <i type="logical" name="LFOCKAEDFT"> F  </i>
   <i name="HFSCREEN">      0.00000000</i>
   <i name="HFSCREENC">      0.00000000</i>
   <i type="int" name="NBANDSGWLOW">     0</i>
  </separator>
  <separator name="vdW DFT" >
   <i type="logical" name="LUSE_VDW"> F  </i>
   <i name="Zab_VDW">     -0.84910000</i>
   <i name="PARAM1">      0.12340000</i>
   <i name="PARAM2">      1.00000000</i>
   <i name="PARAM3">      0.00000000</i>
  </separator>
  <separator name="model GW" >
   <i type="int" name="MODEL_GW">     0</i>
   <i name="MODEL_EPS0">     26.33661408</i>
   <i name="MODEL_ALPHA">      1.00000000</i>
  </separator>
  <separator name="linear response parameters" >
   <i type="logical" name="LEPSILON"> F  </i>
   <i type="logical" name="LRPA"> F  </i>
   <i type="logical" name="LNABLA"> F  </i>
   <i type="logical" name="LVEL"> F  </i>
   <i type="int" name="KINTER">     0</i>
   <i name="CSHIFT">      0.10000000</i>
   <i name="OMEGAMAX">     -1.00000000</i>
   <i name="DEG_THRESHOLD">      0.00200000</i>
   <i name="RTIME">     -0.10000000</i>
   <i name="WPLASMAI">      0.00000000</i>
   <v name="DFIELD">      0.00000000      0.00000000      0.00000000</v>
   <v name="WPLASMA">      0.00000000      0.00000000      0.00000000      0.00000000      0.00000000      0.00000000      0.00000000      0.00000000      0.00000000</v>
  </separator>
  <separator name="orbital magnetization" >
   <i type="logical" name="NUCIND"> F  </i>
   <v name="MAGPOS">      0.00000000      0.00000000      0.00000000</v>
   <i type="logical" name="LNICSALL"> T  </i>
   <i type="logical" name="ORBITALMAG"> F  </i>
   <i type="logical" name="LMAGBLOCH"> F  </i>
   <i type="logical" name="LCHIMAG"> F  </i>
   <i type="logical" name="LGAUGE"> T  </i>
   <i type="int" name="MAGATOM">     0</i>
   <v name="MAGDIPOL">      0.00000000      0.00000000      0.00000000</v>
   <v name="AVECCONST">      0.00000000      0.00000000      0.00000000</v>
  </separator>
  <separator name="response functions" >
   <i type="logical" name="LADDER"> F  </i>
   <i type="logical" name="LRPAFORCE"> F  </i>
   <i type="logical" name="LFXC"> F  </i>
   <i type="logical" name="LHARTREE"> T  </i>
   <i type="int" name="IBSE">     0</i>
   <v type="int" name="KPOINT">    -1     0     0     0</v>
   <i type="logical" name="LTCTE"> F  </i>
   <i type="logical" name="LTETE"> F  </i>
   <i type="logical" name="LTRIPLET"> F  </i>
   <i type="logical" name="LFXCEPS"> F  </i>
   <i type="logical" name="LFXHEG"> F  </i>
   <i type="int" name="NATURALO">     2</i>
   <i type="logical" name="L2ORDER"> F  </i>
   <i type="logical" name="LMP2LT"> F  </i>
   <i type="logical" name="LUSEW"> F  </i>
   <i name="ENCUTGW">     -2.00000000</i>
   <i name="ENCUTGWSOFT">     -2.00000000</i>
   <i name="ENCUTLF">     -1.00000000</i>
   <i type="int" name="LMAXMP2">    -1</i>
   <i name="SCISSOR">      0.00000000</i>
   <i type="int" name="NOMEGA">     0</i>
   <i type="int" name="NOMEGAR">     0</i>
   <i type="int" name="NBANDSGW">    -1</i>
   <i type="int" name="NBANDSO">    -1</i>
   <i type="int" name="NBANDSV">    -1</i>
   <i type="int" name="NELM">    60</i>
   <i type="int" name="NELMHF">     1</i>
   <i type="int" name="DIM">     3</i>
   <i type="int" name="ANTIRES">     0</i>
   <i name="OMEGAMAX">    -30.00000000</i>
   <i name="OMEGAMIN">    -30.00000000</i>
   <i name="OMEGATL">   -200.00000000</i>
   <i type="int" name="OMEGAGRID">   140</i>
   <i name="CSHIFT">     -0.10000000</i>
   <i type="logical" name="SELFENERGY"> F  </i>
   <i type="logical" name="LSPECTRAL"> F  </i>
   <i type="logical" name="LSPECTRALGW"> F  </i>
   <i type="logical" name="LSINGLES"> F  </i>
   <i type="logical" name="LFERMIGW"> F  </i>
   <i type="logical" name="ODDONLYGW"> F  </i>
   <i type="logical" name="EVENONLYGW"> F  </i>
   <i type="int" name="NKREDLFX">     1</i>
   <i type="int" name="NKREDLFY">     1</i>
   <i type="int" name="NKREDLFZ">     1</i>
   <i type="int" name="MAXMEM">  2800</i>
   <i type="int" name="TELESCOPE">     0</i>
   <i type="int" name="TAUPAR">     1</i>
   <i type="int" name="OMEGAPAR">    -1</i>
   <i name="LAMBDA">      1.00000000</i>
  </separator>
  <separator name="External order field" >
   <i name="OFIELD_KAPPA">      0.00000000</i>
   <v name="OFIELD_K">      0.00000000      0.00000000      0.00000000</v>
   <i name="OFIELD_Q6_NEAR">      0.00000000</i>
   <i name="OFIELD_Q6_FAR">      0.00000000</i>
   <i name="OFIELD_A">      0.00000000</i>
  </separator>
 </parameters>
 <atominfo>
  <atoms>       3 </atoms>
  <types>       2 </types>
  <array name="atoms" >
   <dimension dim="1">ion</dimension>
   <field type="string">element</field>
   <field type="int">atomtype</field>
   <set>
    <rc><c>Mo</c><c>   1</c></rc>
    <rc><c>S </c><c>   2</c></rc>
    <rc><c>S </c><c>   2</c></rc>
   </set>
  </array>
  <array name="atomtypes" >
   <dimension dim="1">type</dimension>
   <field type="int">atomspertype</field>
   <field type="string">element</field>
   <field>mass</field>
   <field>valence</field>
   <field type="string">pseudopotential</field>
   <set>
    <rc><c>   1</c><c>Mo</c><c>     95.94000000</c><c>     14.00000000</c><c>  PAW_PBE Mo_sv 02Feb2006               </c></rc>
    <rc><c>   2</c><c>S </c><c>     32.06600000</c><c>      6.00000000</c><c>  PAW_PBE S 06Sep2000                   </c></rc>
   </set>
  </array>
 </atominfo>
 <structure name="initialpos" >
  <crystal>
   <varray name="basis" >
    <v>       3.18386047       0.00000000       0.00000000 </v>
    <v>      -1.59193023       2.75730405       0.00000000 </v>
    <v>       0.00000000       0.00000000      15.00000000 </v>
   </varray>
   <i name="volume">    131.68307038 </i>
   <varray name="rec_basis" >
    <v>       0.31408412       0.18133655       0.00000000 </v>
    <v>       0.00000000       0.36267310       0.00000000 </v>
    <v>       0.00000000       0.00000000       0.06666667 </v>
   </varray>
  </crystal>
  <varray name="positions" >
   <v>       0.66666669       0.33333334       0.25000000 </v>
   <v>       0.33333334       0.66666669       0.35415213 </v>
   <v>       0.33333334       0.66666669       0.14584787 </v>
  </varray>
 </structure>
 <calculation>
  <scstep>
   <time name="dav">    1.15    1.15</time>
   <time name="total">    1.18    1.43</time>
   <energy>
    <i name="alphaZ">     35.92459719 </i>
    <i name="ewald">   2754.58837668 </i>
    <i name="hartreedc">  -4899.31974755 </i>
    <i name="XCdc">     90.81148476 </i>
    <i name="pawpsdc">   3040.60830156 </i>
    <i name="pawaedc">  -3019.62152118 </i>
    <i name="eentropy">     -0.00000000 </i>
    <i name="bandstr">   -440.59346709 </i>
    <i name="atom">   2415.78662005 </i>
    <i name="e_fr_energy">    -21.81535559 </i>
    <i name="e_wo_entrp">    -21.81535559 </i>
    <i name="e_0_energy">    -21.81535559 </i>
   </energy>
  </scstep>
  <scstep>
   <time name="dav">    1.05    1.05</time>
   <time name="total">    1.05    1.05</time>
   <energy>
    <i name="e_fr_energy">    -21.81535564 </i>
    <i name="e_wo_entrp">    -21.81535564 </i>
    <i name="e_0_energy">    -21.81535564 </i>
   </energy>
  </scstep>
  <scstep>
   <time name="dav">    1.08    1.08</time>
   <time name="total">    1.08    1.08</time>
   <energy>
    <i name="alphaZ">     35.92459719 </i>
    <i name="ewald">   2754.58837668 </i>
    <i name="hartreedc">  -4899.31974755 </i>
    <i name="XCdc">     90.81148476 </i>
    <i name="pawpsdc">   3040.60830156 </i>
    <i name="pawaedc">  -3019.62152118 </i>
    <i name="eentropy">     -0.00000000 </i>
    <i name="bandstr">   -440.59346715 </i>
    <i name="atom">   2415.78662005 </i>
    <i name="e_fr_energy">    -21.81535564 </i>
    <i name="e_wo_entrp">    -21.81535564 </i>
    <i name="e_0_energy">    -21.81535564 </i>
   </energy>
  </scstep>
  <structure>
   <crystal>
    <varray name="basis" >
     <v>       3.18386047       0.00000000       0.00000000 </v>
     <v>      -1.59193023       2.75730405       0.00000000 </v>
     <v>       0.00000000       0.00000000      15.00000000 </v>
    </varray>
    <i name="volume">    131.68307038 </i>
    <varray name="rec_basis" >
     <v>       0.31408412       0.18133655       0.00000000 </v>
     <v>       0.00000000       0.36267310       0.00000000 </v>
     <v>       0.00000000       0.00000000       0.06666667 </v>
    </varray>
   </crystal>
   <varray name="positions" >
    <v>       0.66666669       0.33333334       0.25000000 </v>
    <v>       0.33333334       0.66666669       0.35415213 </v>
    <v>       0.33333334       0.66666669       0.14584787 </v>
   </varray>
  </structure>
  <varray name="forces" >
   <v>       0.00000000       0.00000000       0.00000000 </v>
   <v>      -0.00000000      -0.00000000       0.03125958 </v>
   <v>      -0.00000000      -0.00000000      -0.03125958 </v>
  </varray>
  <varray name="stress" >
   <v>      -7.53859258       0.00000000       0.00000000 </v>
   <v>      -0.00000000      -7.53859258       0.00000000 </v>
   <v>       0.00000000       0.00000000      -7.72714078 </v>
  </varray>
  <energy>
   <i name="e_fr_energy">    -21.81535564 </i>
   <i name="e_wo_entrp">    -21.81535564 </i>
   <i name="e_0_energy">     -0.00000000 </i>
  </energy>
  <time name="totalsc">    4.76   18.03</time>
  <eigenvalues>
   <array>
    <dimension dim="1">band</dimension>
    <dimension dim="2">kpoint</dimension>
    <dimension dim="3">spin</dimension>
    <field>eigene</field>
    <field>occ</field>
    <set>
     <set comment="spin 1">
      <set comment="kpoint 1">
       <r>  -61.5706    1.0000 </r>
       <r>  -35.7345    1.0000 </r>
       <r>  -35.5399    1.0000 </r>
       <r>  -35.5311    1.0000 </r>
       <r>  -14.7694    1.0000 </r>
       <r>  -13.4917    1.0000 </r>
       <r>   -6.2881    1.0000 </r>
       <r>   -3.4376    1.0000 </r>
       <r>   -3.2920    1.0000 </r>
       <r>   -2.7749    1.0000 </r>
       <r>   -2.3050    1.0000 </r>
       <r>   -2.0162    1.0000 </r>
       <r>   -0.7525    1.0000 </r>
       <r>    1.9641    0.0000 </r>
       <r>    2.1126    0.0000 </r>
       <r>    2.1490    0.0000 </r>
       <r>    2.2257    0.0000 </r>
       <r>    4.6169    0.0000 </r>
       <r>    5.1606    0.0000 </r>
       <r>    5.6929    0.0000 </r>
       <r>    6.6713    0.0000 </r>
       <r>    8.5614    0.0000 </r>
       <r>    8.8395    0.0000 </r>
       <r>    9.9933    0.0000 </r>
      </set>
      <set comment="kpoint 2">
       <r>  -61.5672    1.0000 </r>
       <r>  -35.7277    1.0000 </r>
       <r>  -35.5748    1.0000 </r>
       <r>  -35.5394    1.0000 </r>
       <r>  -14.6280    1.0000 </r>
       <r>  -13.4337    1.0000 </r>
       <r>   -6.1306    1.0000 </r>
       <r>   -3.7323    1.0000 </r>
       <r>   -3.2067    1.0000 </r>
       <r>   -3.1463    1.0000 </r>
       <r>   -2.5340    1.0000 </r>
       <r>   -1.8041    1.0000 </r>
       <r>   -0.8396    1.0000 </r>
       <r>    1.8343    0.0000 </r>
       <r>    1.8376    0.0000 </r>
       <r>    2.0736    0.0000 </r>
       <r>    2.3504    0.0000 </r>
       <r>    4.8385    0.0000 </r>
       <r>    5.3462    0.0000 </r>
       <r>    6.2416    0.0000 </r>
       <r>    6.9169    0.0000 </r>
       <r>    8.9641    0.0000 </r>
       <r>    9.1583    0.0000 </r>
       <r>    9.5794    0.0000 </r>
      </set>
      <set comment="kpoint 3">
       <r>  -61.5617    1.0000 </r>
       <r>  -35.7167    1.0000 </r>
       <r>  -35.6311    1.0000 </r>
       <r>  -35.5532    1.0000 </r>
       <r>  -14.3869    1.0000 </r>
       <r>  -13.3351    1.0000 </r>
       <r>   -5.8966    1.0000 </r>
       <r>   -4.1389    1.0000 </r>
       <r>   -3.6803    1.0000 </r>
       <r>   -2.9044    1.0000 </r>
       <r>   -2.8568    1.0000 </r>
       <r>   -1.7874    1.0000 </r>
       <r>   -1.0508    1.0000 </r>
       <r>    1.5430    0.0000 </r>
       <r>    1.8382    0.0000 </r>
       <r>    1.8645    0.0000 </r>
       <r>    2.6798    0.0000 </r>
       <r>    5.1789    0.0000 </r>
       <r>    5.6673    0.0000 </r>
       <r>    6.8273    0.0000 </r>
       <r>    7.4976    0.0000 </r>
       <r>    9.0946    0.0000 </r>
       <r>    9.1501    0.0000 </r>
       <r>    9.5878    0.0000 </r>
      </set>
      <set comment="kpoint 4">
       <r>  -61.5547    1.0000 </r>
       <r>  -35.7029    1.0000 </r>
       <r>  -35.7002    1.0000 </r>
       <r>  -35.5693    1.0000 </r>
       <r>  -14.0694    1.0000 </r>
       <r>  -13.2059    1.0000 </r>
       <r>   -5.7163    1.0000 </r>
       <r>   -4.4876    1.0000 </r>
       <r>   -4.1675    1.0000 </r>
       <r>   -3.1868    1.0000 </r>
       <r>   -2.6036    1.0000 </r>
       <r>   -1.9586    1.0000 </r>
       <r>   -1.3703    1.0000 </r>
       <r>    1.4230    0.0000 </r>
       <r>    1.6761    0.0000 </r>
       <r>    2.0645    0.0000 </r>
       <r>    3.0067    0.0000 </r>
       <r>    5.6231    0.0000 </r>
       <r>    6.1007    0.0000 </r>
       <r>    7.2252    0.0000 </r>
       <r>    8.1193    0.0000 </r>
       <r>    8.6744    0.0000 </r>
       <r>    8.8666    0.0000 </r>
       <r>    9.7706    0.0000 </r>
      </set>
      <set comment="kpoint 5">
       <r>  -61.5476    1.0000 </r>
       <r>  -35.7710    1.0000 </r>
       <r>  -35.6885    1.0000 </r>
       <r>  -35.5866    1.0000 </r>
       <r>  -13.7109    1.0000 </r>
       <r>  -13.0619    1.0000 </r>
       <r>   -5.7953    1.0000 </r>
       <r>   -4.6441    1.0000 </r>
       <r>   -4.6112    1.0000 </r>
       <r>   -3.4714    1.0000 </r>
       <r>   -2.3042    1.0000 </r>
       <r>   -2.1966    1.0000 </r>
       <r>   -1.6267    1.0000 </r>
       <r>    1.4410    0.0000 </r>
       <r>    1.5943    0.0000 </r>
       <r>    2.4215    0.0000 </r>
       <r>    3.2695    0.0000 </r>
       <r>    6.1418    0.0000 </r>
       <r>    6.5924    0.0000 </r>
       <r>    7.4679    0.0000 </r>
       <r>    7.8530    0.0000 </r>
       <r>    8.1346    0.0000 </r>
       <r>    9.1233    0.0000 </r>
       <r>   10.0046    0.0000 </r>
      </set>
      <set comment="kpoint 6">
       <r>  -61.5413    1.0000 </r>
       <r>  -35.8330    1.0000 </r>
       <r>  -35.6762    1.0000 </r>
       <r>  -35.6018    1.0000 </r>
       <r>  -13.3614    1.0000 </r>
       <r>  -12.9245    1.0000 </r>
       <r>   -6.0725    1.0000 </r>
       <r>   -5.0634    1.0000 </r>
       <r>   -4.6393    1.0000 </r>
       <r>   -3.6873    1.0000 </r>
       <r>   -2.4036    1.0000 </r>
       <r>   -2.0681    1.0000 </r>
       <r>   -1.6306    1.0000 </r>
       <r>    1.4568    0.0000 </r>
       <r>    1.7061    0.0000 </r>
       <r>    2.7783    0.0000 </r>
       <r>    3.4413    0.0000 </r>
       <r>    6.5278    0.0000 </r>
       <r>    6.9748    0.0000 </r>
       <r>    6.9991    0.0000 </r>
       <r>    7.9368    0.0000 </r>
       <r>    8.0645    0.0000 </r>
       <r>    9.4662    0.0000 </r>
       <r>    9.9502    0.0000 </r>
      </set>
      <set comment="kpoint 7">
       <r>  -61.5368    1.0000 </r>
       <r>  -35.8773    1.0000 </r>
       <r>  -35.6670    1.0000 </r>
       <r>  -35.6128    1.0000 </r>
       <r>  -13.0854    1.0000 </r>
       <r>  -12.8189    1.0000 </r>
       <r>   -6.3355    1.0000 </r>
       <r>   -5.3670    1.0000 </r>
       <r>   -4.7207    1.0000 </r>
       <r>   -3.8270    1.0000 </r>
       <r>   -2.5391    1.0000 </r>
       <r>   -1.8957    1.0000 </r>
       <r>   -1.4525    1.0000 </r>
       <r>    1.4890    0.0000 </r>
       <r>    1.8929    0.0000 </r>
       <r>    3.0412    0.0000 </r>
       <r>    3.5202    0.0000 </r>
       <r>    5.9202    0.0000 </r>
       <r>    7.1918    0.0000 </r>
       <r>    7.2726    0.0000 </r>
       <r>    8.1289    0.0000 </r>
       <r>    8.5998    0.0000 </r>
       <r>    9.5858    0.0000 </r>
       <r>    9.7413    0.0000 </r>
      </set>
      <set comment="kpoint 8">
       <r>  -61.5347    1.0000 </r>
       <r>  -35.8974    1.0000 </r>
       <r>  -35.6624    1.0000 </r>
       <r>  -35.6177    1.0000 </r>
       <r>  -12.9504    1.0000 </r>
       <r>  -12.7684    1.0000 </r>
       <r>   -6.4680    1.0000 </r>
       <r>   -5.5070    1.0000 </r>
       <r>   -4.7835    1.0000 </r>
       <r>   -3.8873    1.0000 </r>
       <r>   -2.5963    1.0000 </r>
       <r>   -1.8115    1.0000 </r>
       <r>   -1.3145    1.0000 </r>
       <r>    1.5155    0.0000 </r>
       <r>    2.0192    0.0000 </r>
       <r>    3.1637    0.0000 </r>
       <r>    3.5367    0.0000 </r>
       <r>    5.4928    0.0000 </r>
       <r>    7.2942    0.0000 </r>
       <r>    7.5533    0.0000 </r>
       <r>    8.2684    0.0000 </r>
       <r>    8.9809    0.0000 </r>
       <r>    9.6889    0.0000 </r>
       <r>    9.7478    0.0000 </r>
      </set>
      <set comment="kpoint 9">
       <r>  -61.5354    1.0000 </r>
       <r>  -35.8906    1.0000 </r>
       <r>  -35.6640    1.0000 </r>
       <r>  -35.6161    1.0000 </r>
       <r>  -12.9967    1.0000 </r>
       <r>  -12.7856    1.0000 </r>
       <r>   -6.4224    1.0000 </r>
       <r>   -5.4597    1.0000 </r>
       <r>   -4.7607    1.0000 </r>
       <r>   -3.8672    1.0000 </r>
       <r>   -2.5773    1.0000 </r>
       <r>   -1.8400    1.0000 </r>
       <r>   -1.3656    1.0000 </r>
       <r>    1.5056    0.0000 </r>
       <r>    1.9726    0.0000 </r>
       <r>    3.1220    0.0000 </r>
       <r>    3.5332    0.0000 </r>
       <r>    5.6444    0.0000 </r>
       <r>    7.2539    0.0000 </r>
       <r>    7.4488    0.0000 </r>
       <r>    8.2258    0.0000 </r>
       <r>    8.8619    0.0000 </r>
       <r>    9.5937    0.0000 </r>
       <r>    9.6936    0.0000 </r>
      </set>
      <set comment="kpoint 10">
       <r>  -61.5388    1.0000 </r>
       <r>  -35.8575    1.0000 </r>
       <r>  -35.6709    1.0000 </r>
       <r>  -35.6079    1.0000 </r>
       <r>  -13.2098    1.0000 </r>
       <r>  -12.8661    1.0000 </r>
       <r>   -6.2148    1.0000 </r>
       <r>   -5.2327    1.0000 </r>
       <r>   -4.6754    1.0000 </r>
       <r>   -3.7668    1.0000 </r>
       <r>   -2.4809    1.0000 </r>
       <r>   -1.9737    1.0000 </r>
       <r>   -1.5499    1.0000 </r>
       <r>    1.4708    0.0000 </r>
       <r>    1.7991    0.0000 </r>
       <r>    2.9261    0.0000 </r>
       <r>    3.4915    0.0000 </r>
       <r>    6.2691    0.0000 </r>
       <r>    7.0698    0.0000 </r>
       <r>    7.1151    0.0000 </r>
       <r>    8.0090    0.0000 </r>
       <r>    8.3129    0.0000 </r>
       <r>    9.5722    0.0000 </r>
       <r>    9.8403    0.0000 </r>
      </set>
      <set comment="kpoint 11">
       <r>  -61.5443    1.0000 </r>
       <r>  -35.8039    1.0000 </r>
       <r>  -35.6820    1.0000 </r>
       <r>  -35.5946    1.0000 </r>
       <r>  -13.5313    1.0000 </r>
       <r>  -12.9908    1.0000 </r>
       <r>   -5.9248    1.0000 </r>
       <r>   -4.8649    1.0000 </r>
       <r>   -4.6207    1.0000 </r>
       <r>   -3.5887    1.0000 </r>
       <r>   -2.3077    1.0000 </r>
       <r>   -2.1765    1.0000 </r>
       <r>   -1.6638    1.0000 </r>
       <r>    1.4497    0.0000 </r>
       <r>    1.6305    0.0000 </r>
       <r>    2.6067    0.0000 </r>
       <r>    3.3676    0.0000 </r>
       <r>    6.3968    0.0000 </r>
       <r>    6.8206    0.0000 </r>
       <r>    7.2456    0.0000 </r>
       <r>    7.8771    0.0000 </r>
       <r>    7.9775    0.0000 </r>
       <r>    9.3029    0.0000 </r>
       <r>   10.0189    0.0000 </r>
      </set>
      <set comment="kpoint 12">
       <r>  -61.5511    1.0000 </r>
       <r>  -35.7359    1.0000 </r>
       <r>  -35.6956    1.0000 </r>
       <r>  -35.5780    1.0000 </r>
       <r>  -13.8925    1.0000 </r>
       <r>  -13.1345    1.0000 </r>
       <r>   -5.7171    1.0000 </r>
       <r>   -4.5785    1.0000 </r>
       <r>   -4.4095    1.0000 </r>
       <r>   -3.3369    1.0000 </r>
       <r>   -2.4491    1.0000 </r>
       <r>   -2.0769    1.0000 </r>
       <r>   -1.5212    1.0000 </r>
       <r>    1.4245    0.0000 </r>
       <r>    1.6144    0.0000 </r>
       <r>    2.2355    0.0000 </r>
       <r>    3.1486    0.0000 </r>
       <r>    5.8769    0.0000 </r>
       <r>    6.3451    0.0000 </r>
       <r>    7.3865    0.0000 </r>
       <r>    8.0621    0.0000 </r>
       <r>    8.3791    0.0000 </r>
       <r>    8.9504    0.0000 </r>
       <r>    9.9077    0.0000 </r>
      </set>
      <set comment="kpoint 13">
       <r>  -61.5583    1.0000 </r>
       <r>  -35.7100    1.0000 </r>
       <r>  -35.6647    1.0000 </r>
       <r>  -35.5611    1.0000 </r>
       <r>  -14.2358    1.0000 </r>
       <r>  -13.2734    1.0000 </r>
       <r>   -5.7865    1.0000 </r>
       <r>   -4.3335    1.0000 </r>
       <r>   -3.9230    1.0000 </r>
       <r>   -3.0248    1.0000 </r>
       <r>   -2.7584    1.0000 </r>
       <r>   -1.8561    1.0000 </r>
       <r>   -1.2045    1.0000 </r>
       <r>    1.4589    0.0000 </r>
       <r>    1.7630    0.0000 </r>
       <r>    1.9264    0.0000 </r>
       <r>    2.8482    0.0000 </r>
       <r>    5.3890    0.0000 </r>
       <r>    5.8722    0.0000 </r>
       <r>    7.0401    0.0000 </r>
       <r>    7.8720    0.0000 </r>
       <r>    8.9534    0.0000 </r>
       <r>    8.9663    0.0000 </r>
       <r>    9.6478    0.0000 </r>
      </set>
      <set comment="kpoint 14">
       <r>  -61.5647    1.0000 </r>
       <r>  -35.7227    1.0000 </r>
       <r>  -35.6009    1.0000 </r>
       <r>  -35.5459    1.0000 </r>
       <r>  -14.5187    1.0000 </r>
       <r>  -13.3890    1.0000 </r>
       <r>   -6.0178    1.0000 </r>
       <r>   -3.9312    1.0000 </r>
       <r>   -3.4410    1.0000 </r>
       <r>   -3.0356    1.0000 </r>
       <r>   -2.6897    1.0000 </r>
       <r>   -1.7674    1.0000 </r>
       <r>   -0.9273    1.0000 </r>
       <r>    1.6740    0.0000 </r>
       <r>    1.8086    0.0000 </r>
       <r>    1.9715    0.0000 </r>
       <r>    2.5098    0.0000 </r>
       <r>    4.9949    0.0000 </r>
       <r>    5.4909    0.0000 </r>
       <r>    6.5616    0.0000 </r>
       <r>    7.1555    0.0000 </r>
       <r>    9.0589    0.0000 </r>
       <r>    9.3597    0.0000 </r>
       <r>    9.4530    0.0000 </r>
      </set>
      <set comment="kpoint 15">
       <r>  -61.5692    1.0000 </r>
       <r>  -35.7318    1.0000 </r>
       <r>  -35.5541    1.0000 </r>
       <r>  -35.5348    1.0000 </r>
       <r>  -14.7122    1.0000 </r>
       <r>  -13.4682    1.0000 </r>
       <r>   -6.2232    1.0000 </r>
       <r>   -3.5624    1.0000 </r>
       <r>   -3.2330    1.0000 </r>
       <r>   -2.9815    1.0000 </r>
       <r>   -2.4020    1.0000 </r>
       <r>   -1.8928    1.0000 </r>
       <r>   -0.7840    1.0000 </r>
       <r>    1.8959    0.0000 </r>
       <r>    2.0068    0.0000 </r>
       <r>    2.1609    0.0000 </r>
       <r>    2.2134    0.0000 </r>
       <r>    4.7111    0.0000 </r>
       <r>    5.2354    0.0000 </r>
       <r>    5.9306    0.0000 </r>
       <r>    6.7647    0.0000 </r>
       <r>    8.8001    0.0000 </r>
       <r>    8.9146    0.0000 </r>
       <r>    9.7952    0.0000 </r>
      </set>
      <set comment="kpoint 16">
       <r>  -61.5712    1.0000 </r>
       <r>  -35.7360    1.0000 </r>
       <r>  -35.5323    1.0000 </r>
       <r>  -35.5293    1.0000 </r>
       <r>  -14.7983    1.0000 </r>
       <r>  -13.5035    1.0000 </r>
       <r>   -6.3216    1.0000 </r>
       <r>   -3.3716    1.0000 </r>
       <r>   -3.3222    1.0000 </r>
       <r>   -2.6223    1.0000 </r>
       <r>   -2.2544    1.0000 </r>
       <r>   -2.1278    1.0000 </r>
       <r>   -0.7387    1.0000 </r>
       <r>    2.0085    0.0000 </r>
       <r>    2.0594    0.0000 </r>
       <r>    2.2317    0.0000 </r>
       <r>    2.2595    0.0000 </r>
       <r>    4.5651    0.0000 </r>
       <r>    5.1228    0.0000 </r>
       <r>    5.5655    0.0000 </r>
       <r>    6.6256    0.0000 </r>
       <r>    8.4266    0.0000 </r>
       <r>    8.8063    0.0000 </r>
       <r>   10.1315    0.0000 </r>
      </set>
      <set comment="kpoint 17">
       <r>  -61.5628    1.0000 </r>
       <r>  -35.7189    1.0000 </r>
       <r>  -35.6176    1.0000 </r>
       <r>  -35.5516    1.0000 </r>
       <r>  -14.4388    1.0000 </r>
       <r>  -13.3562    1.0000 </r>
       <r>   -5.9386    1.0000 </r>
       <r>   -4.0561    1.0000 </r>
       <r>   -3.5398    1.0000 </r>
       <r>   -2.9670    1.0000 </r>
       <r>   -2.9136    1.0000 </r>
       <r>   -1.6799    1.0000 </r>
       <r>   -0.9963    1.0000 </r>
       <r>    1.5822    0.0000 </r>
       <r>    1.7455    0.0000 </r>
       <r>    1.8937    0.0000 </r>
       <r>    2.6633    0.0000 </r>
       <r>    5.1116    0.0000 </r>
       <r>    5.5988    0.0000 </r>
       <r>    6.7734    0.0000 </r>
       <r>    7.3578    0.0000 </r>
       <r>    9.1464    0.0000 </r>
       <r>    9.2756    0.0000 </r>
       <r>    9.6353    0.0000 </r>
      </set>
      <set comment="kpoint 18">
       <r>  -61.5567    1.0000 </r>
       <r>  -35.7068    1.0000 </r>
       <r>  -35.6765    1.0000 </r>
       <r>  -35.5692    1.0000 </r>
       <r>  -14.1623    1.0000 </r>
       <r>  -13.2430    1.0000 </r>
       <r>   -5.7276    1.0000 </r>
       <r>   -4.3980    1.0000 </r>
       <r>   -3.9280    1.0000 </r>
       <r>   -3.3428    1.0000 </r>
       <r>   -2.7430    1.0000 </r>
       <r>   -1.7057    1.0000 </r>
       <r>   -1.2627    1.0000 </r>
       <r>    1.3737    0.0000 </r>
       <r>    1.7432    0.0000 </r>
       <r>    1.8113    0.0000 </r>
       <r>    3.0175    0.0000 </r>
       <r>    5.5063    0.0000 </r>
       <r>    5.9781    0.0000 </r>
       <r>    7.2233    0.0000 </r>
       <r>    8.0976    0.0000 </r>
       <r>    8.9530    0.0000 </r>
       <r>    9.1146    0.0000 </r>
       <r>    9.6842    0.0000 </r>
      </set>
      <set comment="kpoint 19">
       <r>  -61.5498    1.0000 </r>
       <r>  -35.7415    1.0000 </r>
       <r>  -35.6931    1.0000 </r>
       <r>  -35.5889    1.0000 </r>
       <r>  -13.8273    1.0000 </r>
       <r>  -13.1066    1.0000 </r>
       <r>   -5.6804    1.0000 </r>
       <r>   -4.5726    1.0000 </r>
       <r>   -4.4048    1.0000 </r>
       <r>   -3.6430    1.0000 </r>
       <r>   -2.5605    1.0000 </r>
       <r>   -1.8951    1.0000 </r>
       <r>   -1.5178    1.0000 </r>
       <r>    1.2890    0.0000 </r>
       <r>    1.6968    0.0000 </r>
       <r>    2.0696    0.0000 </r>
       <r>    3.3156    0.0000 </r>
       <r>    6.0013    0.0000 </r>
       <r>    6.4529    0.0000 </r>
       <r>    7.6176    0.0000 </r>
       <r>    8.1496    0.0000 </r>
       <r>    8.6130    0.0000 </r>
       <r>    9.0943    0.0000 </r>
       <r>    9.9162    0.0000 </r>
      </set>
      <set comment="kpoint 20">
       <r>  -61.5432    1.0000 </r>
       <r>  -35.8031    1.0000 </r>
       <r>  -35.6798    1.0000 </r>
       <r>  -35.6079    1.0000 </r>
       <r>  -13.4756    1.0000 </r>
       <r>  -12.9652    1.0000 </r>
       <r>   -5.8778    1.0000 </r>
       <r>   -4.8966    1.0000 </r>
       <r>   -4.5728    1.0000 </r>
       <r>   -3.8021    1.0000 </r>
       <r>   -2.4855    1.0000 </r>
       <r>   -2.1543    1.0000 </r>
       <r>   -1.5597    1.0000 </r>
       <r>    1.3480    0.0000 </r>
       <r>    1.7367    0.0000 </r>
       <r>    2.4242    0.0000 </r>
       <r>    3.5005    0.0000 </r>
       <r>    6.5322    0.0000 </r>
       <r>    6.9571    0.0000 </r>
       <r>    7.4113    0.0000 </r>
       <r>    8.0488    0.0000 </r>
       <r>    8.2582    0.0000 </r>
       <r>    9.4557    0.0000 </r>
       <r>   10.0624    0.0000 </r>
      </set>
      <set comment="kpoint 21">
       <r>  -61.5379    1.0000 </r>
       <r>  -35.8525    1.0000 </r>
       <r>  -35.6690    1.0000 </r>
       <r>  -35.6236    1.0000 </r>
       <r>  -13.1638    1.0000 </r>
       <r>  -12.8421    1.0000 </r>
       <r>   -6.1352    1.0000 </r>
       <r>   -5.2994    1.0000 </r>
       <r>   -4.6233    1.0000 </r>
       <r>   -3.8730    1.0000 </r>
       <r>   -2.4134    1.0000 </r>
       <r>   -2.3925    1.0000 </r>
       <r>   -1.4088    1.0000 </r>
       <r>    1.4765    0.0000 </r>
       <r>    1.8442    0.0000 </r>
       <r>    2.7774    0.0000 </r>
       <r>    3.5426    0.0000 </r>
       <r>    6.3832    0.0000 </r>
       <r>    7.2915    0.0000 </r>
       <r>    7.3813    0.0000 </r>
       <r>    8.2452    0.0000 </r>
       <r>    8.5138    0.0000 </r>
       <r>    9.6886    0.0000 </r>
       <r>    9.9393    0.0000 </r>
      </set>
      <set comment="kpoint 22">
       <r>  -61.5346    1.0000 </r>
       <r>  -35.8824    1.0000 </r>
       <r>  -35.6624    1.0000 </r>
       <r>  -35.6329    1.0000 </r>
       <r>  -12.9579    1.0000 </r>
       <r>  -12.7626    1.0000 </r>
       <r>   -6.3155    1.0000 </r>
       <r>   -5.5456    1.0000 </r>
       <r>   -4.7189    1.0000 </r>
       <r>   -3.8946    1.0000 </r>
       <r>   -2.5474    1.0000 </r>
       <r>   -2.3300    1.0000 </r>
       <r>   -1.2245    1.0000 </r>
       <r>    1.5226    0.0000 </r>
       <r>    2.0232    0.0000 </r>
       <r>    3.0723    0.0000 </r>
       <r>    3.4541    0.0000 </r>
       <r>    5.7706    0.0000 </r>
       <r>    7.7078    0.0000 </r>
       <r>    7.7503    0.0000 </r>
       <r>    8.3496    0.0000 </r>
       <r>    9.0566    0.0000 </r>
       <r>    9.5293    0.0000 </r>
       <r>    9.7873    0.0000 </r>
      </set>
      <set comment="kpoint 23">
       <r>  -61.5339    1.0000 </r>
       <r>  -35.8887    1.0000 </r>
       <r>  -35.6608    1.0000 </r>
       <r>  -35.6348    1.0000 </r>
       <r>  -12.9133    1.0000 </r>
       <r>  -12.7455    1.0000 </r>
       <r>   -6.3551    1.0000 </r>
       <r>   -5.5968    1.0000 </r>
       <r>   -4.7451    1.0000 </r>
       <r>   -3.8970    1.0000 </r>
       <r>   -2.5804    1.0000 </r>
       <r>   -2.3097    1.0000 </r>
       <r>   -1.1741    1.0000 </r>
       <r>    1.5220    0.0000 </r>
       <r>    2.0809    0.0000 </r>
       <r>    3.1756    0.0000 </r>
       <r>    3.3897    0.0000 </r>
       <r>    5.6211    0.0000 </r>
       <r>    7.8159    0.0000 </r>
       <r>    7.8902    0.0000 </r>
       <r>    8.3407    0.0000 </r>
       <r>    9.1196    0.0000 </r>
       <r>    9.6404    0.0000 </r>
       <r>    9.7730    0.0000 </r>
      </set>
      <set comment="kpoint 24">
       <r>  -61.5360    1.0000 </r>
       <r>  -35.8703    1.0000 </r>
       <r>  -35.6652    1.0000 </r>
       <r>  -35.6292    1.0000 </r>
       <r>  -13.0435    1.0000 </r>
       <r>  -12.7955    1.0000 </r>
       <r>   -6.2401    1.0000 </r>
       <r>   -5.4451    1.0000 </r>
       <r>   -4.6737    1.0000 </r>
       <r>   -3.8879    1.0000 </r>
       <r>   -2.4835    1.0000 </r>
       <r>   -2.3673    1.0000 </r>
       <r>   -1.3103    1.0000 </r>
       <r>    1.5123    0.0000 </r>
       <r>    1.9326    0.0000 </r>
       <r>    2.9346    0.0000 </r>
       <r>    3.5114    0.0000 </r>
       <r>    6.0417    0.0000 </r>
       <r>    7.5311    0.0000 </r>
       <r>    7.5527    0.0000 </r>
       <r>    8.3114    0.0000 </r>
       <r>    8.7985    0.0000 </r>
       <r>    9.6240    0.0000 </r>
       <r>    9.8444    0.0000 </r>
      </set>
      <set comment="kpoint 25">
       <r>  -61.5403    1.0000 </r>
       <r>  -35.8297    1.0000 </r>
       <r>  -35.6739    1.0000 </r>
       <r>  -35.6164    1.0000 </r>
       <r>  -13.3107    1.0000 </r>
       <r>  -12.8998    1.0000 </r>
       <r>   -6.0097    1.0000 </r>
       <r>   -5.1141    1.0000 </r>
       <r>   -4.5856    1.0000 </r>
       <r>   -3.8459    1.0000 </r>
       <r>   -2.4557    1.0000 </r>
       <r>   -2.2804    1.0000 </r>
       <r>   -1.4984    1.0000 </r>
       <r>    1.4143    0.0000 </r>
       <r>    1.7798    0.0000 </r>
       <r>    2.6058    0.0000 </r>
       <r>    3.5402    0.0000 </r>
       <r>    6.6462    0.0000 </r>
       <r>    7.1619    0.0000 </r>
       <r>    7.1847    0.0000 </r>
       <r>    8.2106    0.0000 </r>
       <r>    8.2633    0.0000 </r>
       <r>    9.6050    0.0000 </r>
       <r>   10.0275    0.0000 </r>
      </set>
      <set comment="kpoint 26">
       <r>  -61.5464    1.0000 </r>
       <r>  -35.7736    1.0000 </r>
       <r>  -35.6865    1.0000 </r>
       <r>  -35.5986    1.0000 </r>
       <r>  -13.6503    1.0000 </r>
       <r>  -13.0352    1.0000 </r>
       <r>   -5.7586    1.0000 </r>
       <r>   -4.6566    1.0000 </r>
       <r>   -4.5788    1.0000 </r>
       <r>   -3.7366    1.0000 </r>
       <r>   -2.5131    1.0000 </r>
       <r>   -2.0225    1.0000 </r>
       <r>   -1.5716    1.0000 </r>
       <r>    1.3017    0.0000 </r>
       <r>    1.7088    0.0000 </r>
       <r>    2.2416    0.0000 </r>
       <r>    3.4244    0.0000 </r>
       <r>    6.2723    0.0000 </r>
       <r>    6.7075    0.0000 </r>
       <r>    7.7241    0.0000 </r>
       <r>    7.9118    0.0000 </r>
       <r>    8.3969    0.0000 </r>
       <r>    9.2879    0.0000 </r>
       <r>   10.0204    0.0000 </r>
      </set>
      <set comment="kpoint 27">
       <r>  -61.5532    1.0000 </r>
       <r>  -35.7085    1.0000 </r>
       <r>  -35.6999    1.0000 </r>
       <r>  -35.5787    1.0000 </r>
       <r>  -13.9998    1.0000 </r>
       <r>  -13.1767    1.0000 </r>
       <r>   -5.6699    1.0000 </r>
       <r>   -4.5164    1.0000 </r>
       <r>   -4.1568    1.0000 </r>
       <r>   -3.5132    1.0000 </r>
       <r>   -2.6394    1.0000 </r>
       <r>   -1.7848    1.0000 </r>
       <r>   -1.4055    1.0000 </r>
       <r>    1.3136    0.0000 </r>
       <r>    1.7065    0.0000 </r>
       <r>    1.9213    0.0000 </r>
       <r>    3.1782    0.0000 </r>
       <r>    5.7432    0.0000 </r>
       <r>    6.2065    0.0000 </r>
       <r>    7.4253    0.0000 </r>
       <r>    8.2983    0.0000 </r>
       <r>    8.8735    0.0000 </r>
       <r>    8.9188    0.0000 </r>
       <r>    9.7860    0.0000 </r>
      </set>
      <set comment="kpoint 28">
       <r>  -61.5599    1.0000 </r>
       <r>  -35.7131    1.0000 </r>
       <r>  -35.6458    1.0000 </r>
       <r>  -35.5598    1.0000 </r>
       <r>  -14.3099    1.0000 </r>
       <r>  -13.3034    1.0000 </r>
       <r>   -5.8265    1.0000 </r>
       <r>   -4.2357    1.0000 </r>
       <r>   -3.7243    1.0000 </r>
       <r>   -3.1360    1.0000 </r>
       <r>   -2.8563    1.0000 </r>
       <r>   -1.6691    1.0000 </r>
       <r>   -1.1191    1.0000 </r>
       <r>    1.4658    0.0000 </r>
       <r>    1.7522    0.0000 </r>
       <r>    1.8078    0.0000 </r>
       <r>    2.8424    0.0000 </r>
       <r>    5.2949    0.0000 </r>
       <r>    5.7741    0.0000 </r>
       <r>    7.0105    0.0000 </r>
       <r>    7.7195    0.0000 </r>
       <r>    9.1092    0.0000 </r>
       <r>    9.2072    0.0000 </r>
       <r>    9.6847    0.0000 </r>
      </set>
      <set comment="kpoint 29">
       <r>  -61.5652    1.0000 </r>
       <r>  -35.7237    1.0000 </r>
       <r>  -35.5936    1.0000 </r>
       <r>  -35.5446    1.0000 </r>
       <r>  -14.5457    1.0000 </r>
       <r>  -13.4000    1.0000 </r>
       <r>   -6.0438    1.0000 </r>
       <r>   -3.8822    1.0000 </r>
       <r>   -3.3674    1.0000 </r>
       <r>   -3.0659    1.0000 </r>
       <r>   -2.7031    1.0000 </r>
       <r>   -1.7316    1.0000 </r>
       <r>   -0.9030    1.0000 </r>
       <r>    1.7111    0.0000 </r>
       <r>    1.7810    0.0000 </r>
       <r>    1.9884    0.0000 </r>
       <r>    2.4932    0.0000 </r>
       <r>    4.9586    0.0000 </r>
       <r>    5.4554    0.0000 </r>
       <r>    6.5047    0.0000 </r>
       <r>    7.0894    0.0000 </r>
       <r>    9.0518    0.0000 </r>
       <r>    9.4127    0.0000 </r>
       <r>    9.4359    0.0000 </r>
      </set>
      <set comment="kpoint 30">
       <r>  -61.5684    1.0000 </r>
       <r>  -35.7302    1.0000 </r>
       <r>  -35.5609    1.0000 </r>
       <r>  -35.5357    1.0000 </r>
       <r>  -14.6839    1.0000 </r>
       <r>  -13.4566    1.0000 </r>
       <r>   -6.1915    1.0000 </r>
       <r>   -3.6213    1.0000 </r>
       <r>   -3.2026    1.0000 </r>
       <r>   -3.0683    1.0000 </r>
       <r>   -2.4329    1.0000 </r>
       <r>   -1.8647    1.0000 </r>
       <r>   -0.8014    1.0000 </r>
       <r>    1.8784    0.0000 </r>
       <r>    1.9442    0.0000 </r>
       <r>    2.1342    0.0000 </r>
       <r>    2.2551    0.0000 </r>
       <r>    4.7546    0.0000 </r>
       <r>    5.2725    0.0000 </r>
       <r>    6.0394    0.0000 </r>
       <r>    6.8142    0.0000 </r>
       <r>    8.8797    0.0000 </r>
       <r>    8.9778    0.0000 </r>
       <r>    9.7107    0.0000 </r>
      </set>
      <set comment="kpoint 31">
       <r>  -61.5505    1.0000 </r>
       <r>  -35.7286    1.0000 </r>
       <r>  -35.6945    1.0000 </r>
       <r>  -35.5921    1.0000 </r>
       <r>  -13.8674    1.0000 </r>
       <r>  -13.1218    1.0000 </r>
       <r>   -5.6343    1.0000 </r>
       <r>   -4.5499    1.0000 </r>
       <r>   -4.2387    1.0000 </r>
       <r>   -3.8140    1.0000 </r>
       <r>   -2.6714    1.0000 </r>
       <r>   -1.7324    1.0000 </r>
       <r>   -1.4753    1.0000 </r>
       <r>    1.2285    0.0000 </r>
       <r>    1.7303    0.0000 </r>
       <r>    1.8926    0.0000 </r>
       <r>    3.3515    0.0000 </r>
       <r>    5.9558    0.0000 </r>
       <r>    6.4048    0.0000 </r>
       <r>    7.6704    0.0000 </r>
       <r>    8.3678    0.0000 </r>
       <r>    8.9815    0.0000 </r>
       <r>    9.1362    0.0000 </r>
       <r>    9.7989    0.0000 </r>
      </set>
      <set comment="kpoint 32">
       <r>  -61.5443    1.0000 </r>
       <r>  -35.7809    1.0000 </r>
       <r>  -35.6822    1.0000 </r>
       <r>  -35.6180    1.0000 </r>
       <r>  -13.5367    1.0000 </r>
       <r>  -12.9860    1.0000 </r>
       <r>   -5.7313    1.0000 </r>
       <r>   -4.7501    1.0000 </r>
       <r>   -4.5110    1.0000 </r>
       <r>   -3.9785    1.0000 </r>
       <r>   -2.7907    1.0000 </r>
       <r>   -1.9213    1.0000 </r>
       <r>   -1.5335    1.0000 </r>
       <r>    1.2528    0.0000 </r>
       <r>    1.7787    0.0000 </r>
       <r>    2.1214    0.0000 </r>
       <r>    3.5807    0.0000 </r>
       <r>    6.4884    0.0000 </r>
       <r>    6.9115    0.0000 </r>
       <r>    7.8733    0.0000 </r>
       <r>    8.1239    0.0000 </r>
       <r>    8.7404    0.0000 </r>
       <r>    9.5910    0.0000 </r>
       <r>   10.0296    0.0000 </r>
      </set>
      <set comment="kpoint 33">
       <r>  -61.5385    1.0000 </r>
       <r>  -35.8255    1.0000 </r>
       <r>  -35.6705    1.0000 </r>
       <r>  -35.6412    1.0000 </r>
       <r>  -13.2173    1.0000 </r>
       <r>  -12.8553    1.0000 </r>
       <r>   -5.9156    1.0000 </r>
       <r>   -5.2432    1.0000 </r>
       <r>   -4.4815    1.0000 </r>
       <r>   -3.9809    1.0000 </r>
       <r>   -2.9442    1.0000 </r>
       <r>   -2.1958    1.0000 </r>
       <r>   -1.4231    1.0000 </r>
       <r>    1.4321    0.0000 </r>
       <r>    1.8466    0.0000 </r>
       <r>    2.4186    0.0000 </r>
       <r>    3.6808    0.0000 </r>
       <r>    6.8100    0.0000 </r>
       <r>    7.4100    0.0000 </r>
       <r>    7.4408    0.0000 </r>
       <r>    8.5517    0.0000 </r>
       <r>    8.6665    0.0000 </r>
       <r>    9.5943    0.0000 </r>
       <r>   10.1850    0.0000 </r>
      </set>
      <set comment="kpoint 34">
       <r>  -61.5345    1.0000 </r>
       <r>  -35.8575    1.0000 </r>
       <r>  -35.6623    1.0000 </r>
       <r>  -35.6580    1.0000 </r>
       <r>  -12.9684    1.0000 </r>
       <r>  -12.7543    1.0000 </r>
       <r>   -6.0679    1.0000 </r>
       <r>   -5.5960    1.0000 </r>
       <r>   -4.5860    1.0000 </r>
       <r>   -3.9204    1.0000 </r>
       <r>   -2.9781    1.0000 </r>
       <r>   -2.4557    1.0000 </r>
       <r>   -1.2229    1.0000 </r>
       <r>    1.4892    0.0000 </r>
       <r>    2.0544    0.0000 </r>
       <r>    2.6855    0.0000 </r>
       <r>    3.6672    0.0000 </r>
       <r>    6.2332    0.0000 </r>
       <r>    7.8648    0.0000 </r>
       <r>    7.9478    0.0000 </r>
       <r>    8.7781    0.0000 </r>
       <r>    8.9200    0.0000 </r>
       <r>    9.4406    0.0000 </r>
       <r>   10.0805    0.0000 </r>
      </set>
      <set comment="kpoint 35">
       <r>  -61.5327    1.0000 </r>
       <r>  -35.8723    1.0000 </r>
       <r>  -35.6661    1.0000 </r>
       <r>  -35.6586    1.0000 </r>
       <r>  -12.8479    1.0000 </r>
       <r>  -12.7058    1.0000 </r>
       <r>   -6.1389    1.0000 </r>
       <r>   -5.7566    1.0000 </r>
       <r>   -4.6809    1.0000 </r>
       <r>   -3.8687    1.0000 </r>
       <r>   -2.9668    1.0000 </r>
       <r>   -2.5982    1.0000 </r>
       <r>   -1.0739    1.0000 </r>
       <r>    1.4287    0.0000 </r>
       <r>    2.2589    0.0000 </r>
       <r>    2.8327    0.0000 </r>
       <r>    3.6206    0.0000 </r>
       <r>    5.8339    0.0000 </r>
       <r>    8.3511    0.0000 </r>
       <r>    8.3996    0.0000 </r>
       <r>    8.7192    0.0000 </r>
       <r>    8.7987    0.0000 </r>
       <r>    9.7362    0.0000 </r>
       <r>    9.9380    0.0000 </r>
      </set>
      <set comment="kpoint 36">
       <r>  -61.5333    1.0000 </r>
       <r>  -35.8670    1.0000 </r>
       <r>  -35.6634    1.0000 </r>
       <r>  -35.6598    1.0000 </r>
       <r>  -12.8891    1.0000 </r>
       <r>  -12.7223    1.0000 </r>
       <r>   -6.1146    1.0000 </r>
       <r>   -5.7025    1.0000 </r>
       <r>   -4.6456    1.0000 </r>
       <r>   -3.8884    1.0000 </r>
       <r>   -2.9722    1.0000 </r>
       <r>   -2.5478    1.0000 </r>
       <r>   -1.1297    1.0000 </r>
       <r>    1.4562    0.0000 </r>
       <r>    2.1810    0.0000 </r>
       <r>    2.7803    0.0000 </r>
       <r>    3.6409    0.0000 </r>
       <r>    5.9768    0.0000 </r>
       <r>    8.1362    0.0000 </r>
       <r>    8.1925    0.0000 </r>
       <r>    8.7900    0.0000 </r>
       <r>    8.9159    0.0000 </r>
       <r>    9.5517    0.0000 </r>
       <r>    9.9868    0.0000 </r>
      </set>
      <set comment="kpoint 37">
       <r>  -61.5363    1.0000 </r>
       <r>  -35.8434    1.0000 </r>
       <r>  -35.6660    1.0000 </r>
       <r>  -35.6506    1.0000 </r>
       <r>  -13.0802    1.0000 </r>
       <r>  -12.7996    1.0000 </r>
       <r>   -6.0000    1.0000 </r>
       <r>   -5.4411    1.0000 </r>
       <r>   -4.5229    1.0000 </r>
       <r>   -3.9543    1.0000 </r>
       <r>   -2.9743    1.0000 </r>
       <r>   -2.3340    1.0000 </r>
       <r>   -1.3279    1.0000 </r>
       <r>    1.4909    0.0000 </r>
       <r>    1.9277    0.0000 </r>
       <r>    2.5610    0.0000 </r>
       <r>    3.6842    0.0000 </r>
       <r>    6.5517    0.0000 </r>
       <r>    7.5905    0.0000 </r>
       <r>    7.6968    0.0000 </r>
       <r>    8.7165    0.0000 </r>
       <r>    8.7582    0.0000 </r>
       <r>    9.4996    0.0000 </r>
       <r>   10.1668    0.0000 </r>
      </set>
      <set comment="kpoint 38">
       <r>  -61.5413    1.0000 </r>
       <r>  -35.8047    1.0000 </r>
       <r>  -35.6763    1.0000 </r>
       <r>  -35.6302    1.0000 </r>
       <r>  -13.3721    1.0000 </r>
       <r>  -12.9185    1.0000 </r>
       <r>   -5.8223    1.0000 </r>
       <r>   -5.0095    1.0000 </r>
       <r>   -4.4796    1.0000 </r>
       <r>   -3.9918    1.0000 </r>
       <r>   -2.8794    1.0000 </r>
       <r>   -2.0542    1.0000 </r>
       <r>   -1.4949    1.0000 </r>
       <r>    1.3352    0.0000 </r>
       <r>    1.8068    0.0000 </r>
       <r>    2.2679    0.0000 </r>
       <r>    3.6467    0.0000 </r>
       <r>    6.7405    0.0000 </r>
       <r>    7.1774    0.0000 </r>
       <r>    7.5617    0.0000 </r>
       <r>    8.3403    0.0000 </r>
       <r>    8.6720    0.0000 </r>
       <r>    9.6356    0.0000 </r>
       <r>   10.1364    0.0000 </r>
      </set>
      <set comment="kpoint 39">
       <r>  -61.5473    1.0000 </r>
       <r>  -35.7551    1.0000 </r>
       <r>  -35.6881    1.0000 </r>
       <r>  -35.6049    1.0000 </r>
       <r>  -13.7039    1.0000 </r>
       <r>  -13.0546    1.0000 </r>
       <r>   -5.6612    1.0000 </r>
       <r>   -4.5468    1.0000 </r>
       <r>   -4.4813    1.0000 </r>
       <r>   -3.9277    1.0000 </r>
       <r>   -2.7102    1.0000 </r>
       <r>   -1.8096    1.0000 </r>
       <r>   -1.5293    1.0000 </r>
       <r>    1.2146    0.0000 </r>
       <r>    1.7520    0.0000 </r>
       <r>    1.9925    0.0000 </r>
       <r>    3.4822    0.0000 </r>
       <r>    6.2161    0.0000 </r>
       <r>    6.6514    0.0000 </r>
       <r>    7.8981    0.0000 </r>
       <r>    8.1644    0.0000 </r>
       <r>    8.8562    0.0000 </r>
       <r>    9.4218    0.0000 </r>
       <r>    9.9074    0.0000 </r>
      </set>
      <set comment="kpoint 40">
       <r>  -61.5537    1.0000 </r>
       <r>  -35.7021    1.0000 </r>
       <r>  -35.7008    1.0000 </r>
       <r>  -35.5802    1.0000 </r>
       <r>  -14.0218    1.0000 </r>
       <r>  -13.1853    1.0000 </r>
       <r>   -5.6605    1.0000 </r>
       <r>   -4.4981    1.0000 </r>
       <r>   -4.0602    1.0000 </r>
       <r>   -3.6084    1.0000 </r>
       <r>   -2.6864    1.0000 </r>
       <r>   -1.6977    1.0000 </r>
       <r>   -1.3791    1.0000 </r>
       <r>    1.2881    0.0000 </r>
       <r>    1.7238    0.0000 </r>
       <r>    1.8318    0.0000 </r>
       <r>    3.1934    0.0000 </r>
       <r>    5.7175    0.0000 </r>
       <r>    6.1786    0.0000 </r>
       <r>    7.4437    0.0000 </r>
       <r>    8.3704    0.0000 </r>
       <r>    8.9261    0.0000 </r>
       <r>    9.0752    0.0000 </r>
       <r>    9.7260    0.0000 </r>
      </set>
      <set comment="kpoint 41">
       <r>  -61.5594    1.0000 </r>
       <r>  -35.7122    1.0000 </r>
       <r>  -35.6526    1.0000 </r>
       <r>  -35.5600    1.0000 </r>
       <r>  -14.2850    1.0000 </r>
       <r>  -13.2933    1.0000 </r>
       <r>   -5.8128    1.0000 </r>
       <r>   -4.2709    1.0000 </r>
       <r>   -3.8055    1.0000 </r>
       <r>   -3.0767    1.0000 </r>
       <r>   -2.8215    1.0000 </r>
       <r>   -1.7444    1.0000 </r>
       <r>   -1.1485    1.0000 </r>
       <r>    1.4628    0.0000 </r>
       <r>    1.7942    0.0000 </r>
       <r>    1.8210    0.0000 </r>
       <r>    2.8392    0.0000 </r>
       <r>    5.3257    0.0000 </r>
       <r>    5.8068    0.0000 </r>
       <r>    7.0150    0.0000 </r>
       <r>    7.7736    0.0000 </r>
       <r>    9.0479    0.0000 </r>
       <r>    9.1137    0.0000 </r>
       <r>    9.6440    0.0000 </r>
      </set>
      <set comment="kpoint 42">
       <r>  -61.5634    1.0000 </r>
       <r>  -35.7205    1.0000 </r>
       <r>  -35.6135    1.0000 </r>
       <r>  -35.5483    1.0000 </r>
       <r>  -14.4654    1.0000 </r>
       <r>  -13.3672    1.0000 </r>
       <r>   -5.9675    1.0000 </r>
       <r>   -4.0205    1.0000 </r>
       <r>   -3.5543    1.0000 </r>
       <r>   -2.9786    1.0000 </r>
       <r>   -2.7244    1.0000 </r>
       <r>   -1.7987    1.0000 </r>
       <r>   -0.9765    1.0000 </r>
       <r>    1.6143    0.0000 </r>
       <r>    1.8364    0.0000 </r>
       <r>    1.9298    0.0000 </r>
       <r>    2.5663    0.0000 </r>
       <r>    5.0682    0.0000 </r>
       <r>    5.5616    0.0000 </r>
       <r>    6.6722    0.0000 </r>
       <r>    7.2906    0.0000 </r>
       <r>    9.0738    0.0000 </r>
       <r>    9.2572    0.0000 </r>
       <r>    9.5187    0.0000 </r>
      </set>
      <set comment="kpoint 43">
       <r>  -61.5389    1.0000 </r>
       <r>  -35.8129    1.0000 </r>
       <r>  -35.6712    1.0000 </r>
       <r>  -35.6513    1.0000 </r>
       <r>  -13.2364    1.0000 </r>
       <r>  -12.8596    1.0000 </r>
       <r>   -5.8167    1.0000 </r>
       <r>   -5.2182    1.0000 </r>
       <r>   -4.3884    1.0000 </r>
       <r>   -4.0373    1.0000 </r>
       <r>   -3.1966    1.0000 </r>
       <r>   -2.1038    1.0000 </r>
       <r>   -1.4376    1.0000 </r>
       <r>    1.4075    0.0000 </r>
       <r>    1.8550    0.0000 </r>
       <r>    2.2632    0.0000 </r>
       <r>    3.7472    0.0000 </r>
       <r>    6.9475    0.0000 </r>
       <r>    7.4398    0.0000 </r>
       <r>    7.5505    0.0000 </r>
       <r>    8.5042    0.0000 </r>
       <r>    8.9295    0.0000 </r>
       <r>    9.4572    0.0000 </r>
       <r>   10.2765    0.0000 </r>
      </set>
      <set comment="kpoint 44">
       <r>  -61.5345    1.0000 </r>
       <r>  -35.8349    1.0000 </r>
       <r>  -35.6819    1.0000 </r>
       <r>  -35.6625    1.0000 </r>
       <r>  -12.9757    1.0000 </r>
       <r>  -12.7484    1.0000 </r>
       <r>   -5.8607    1.0000 </r>
       <r>   -5.6296    1.0000 </r>
       <r>   -4.3923    1.0000 </r>
       <r>   -3.9475    1.0000 </r>
       <r>   -3.5272    1.0000 </r>
       <r>   -2.3762    1.0000 </r>
       <r>   -1.2464    1.0000 </r>
       <r>    1.4485    0.0000 </r>
       <r>    2.0840    0.0000 </r>
       <r>    2.4190    0.0000 </r>
       <r>    3.8394    0.0000 </r>
       <r>    6.7174    0.0000 </r>
       <r>    7.6907    0.0000 </r>
       <r>    7.9775    0.0000 </r>
       <r>    8.5760    0.0000 </r>
       <r>    9.2036    0.0000 </r>
       <r>    9.6395    0.0000 </r>
       <r>   10.5347    0.0000 </r>
      </set>
      <set comment="kpoint 45">
       <r>  -61.5318    1.0000 </r>
       <r>  -35.8464    1.0000 </r>
       <r>  -35.7019    1.0000 </r>
       <r>  -35.6568    1.0000 </r>
       <r>  -12.8074    1.0000 </r>
       <r>  -12.6760    1.0000 </r>
       <r>   -5.8835    1.0000 </r>
       <r>   -5.8489    1.0000 </r>
       <r>   -4.5599    1.0000 </r>
       <r>   -3.8176    1.0000 </r>
       <r>   -3.6372    1.0000 </r>
       <r>   -2.6201    1.0000 </r>
       <r>   -1.0213    1.0000 </r>
       <r>    1.2889    0.0000 </r>
       <r>    2.4169    0.0000 </r>
       <r>    2.5200    0.0000 </r>
       <r>    3.8844    0.0000 </r>
       <r>    6.2287    0.0000 </r>
       <r>    7.8393    0.0000 </r>
       <r>    8.4594    0.0000 </r>
       <r>    8.9133    0.0000 </r>
       <r>    9.5287    0.0000 </r>
       <r>   10.0832    0.0000 </r>
       <r>   10.3341    0.0000 </r>
      </set>
      <set comment="kpoint 46">
       <r>  -61.5314    1.0000 </r>
       <r>  -35.8491    1.0000 </r>
       <r>  -35.7066    1.0000 </r>
       <r>  -35.6558    1.0000 </r>
       <r>  -12.7714    1.0000 </r>
       <r>  -12.6604    1.0000 </r>
       <r>   -5.9366    1.0000 </r>
       <r>   -5.8397    1.0000 </r>
       <r>   -4.6185    1.0000 </r>
       <r>   -3.7788    1.0000 </r>
       <r>   -3.6484    1.0000 </r>
       <r>   -2.6837    1.0000 </r>
       <r>   -0.9566    1.0000 </r>
       <r>    1.2324    0.0000 </r>
       <r>    2.5076    0.0000 </r>
       <r>    2.5404    0.0000 </r>
       <r>    3.8919    0.0000 </r>
       <r>    6.1008    0.0000 </r>
       <r>    7.8580    0.0000 </r>
       <r>    8.6065    0.0000 </r>
       <r>    9.0556    0.0000 </r>
       <r>    9.6218    0.0000 </r>
       <r>   10.1869    0.0000 </r>
       <r>   10.2641    0.0000 </r>
      </set>
      <set comment="kpoint 47">
       <r>  -61.5330    1.0000 </r>
       <r>  -35.8420    1.0000 </r>
       <r>  -35.6937    1.0000 </r>
       <r>  -35.6593    1.0000 </r>
       <r>  -12.8770    1.0000 </r>
       <r>  -12.7060    1.0000 </r>
       <r>   -5.8598    1.0000 </r>
       <r>   -5.7798    1.0000 </r>
       <r>   -4.4703    1.0000 </r>
       <r>   -3.8805    1.0000 </r>
       <r>   -3.6047    1.0000 </r>
       <r>   -2.5109    1.0000 </r>
       <r>   -1.1281    1.0000 </r>
       <r>    1.3744    0.0000 </r>
       <r>    2.2616    0.0000 </r>
       <r>    2.4781    0.0000 </r>
       <r>    3.8667    0.0000 </r>
       <r>    6.4521    0.0000 </r>
       <r>    7.7903    0.0000 </r>
       <r>    8.2326    0.0000 </r>
       <r>    8.7160    0.0000 </r>
       <r>    9.3742    0.0000 </r>
       <r>    9.8597    0.0000 </r>
       <r>   10.4951    0.0000 </r>
      </set>
      <set comment="kpoint 48">
       <r>  -61.5365    1.0000 </r>
       <r>  -35.8252    1.0000 </r>
       <r>  -35.6672    1.0000 </r>
       <r>  -35.6664    1.0000 </r>
       <r>  -13.0977    1.0000 </r>
       <r>  -12.8006    1.0000 </r>
       <r>   -5.8464    1.0000 </r>
       <r>   -5.4391    1.0000 </r>
       <r>   -4.3633    1.0000 </r>
       <r>   -4.0037    1.0000 </r>
       <r>   -3.3874    1.0000 </r>
       <r>   -2.2353    1.0000 </r>
       <r>   -1.3532    1.0000 </r>
       <r>    1.4673    0.0000 </r>
       <r>    1.9360    0.0000 </r>
       <r>    2.3450    0.0000 </r>
       <r>    3.8007    0.0000 </r>
       <r>    6.9390    0.0000 </r>
       <r>    7.5568    0.0000 </r>
       <r>    7.7110    0.0000 </r>
       <r>    8.5400    0.0000 </r>
       <r>    9.0509    0.0000 </r>
       <r>    9.4714    0.0000 </r>
       <r>   10.4354    0.0000 </r>
      </set>
      <set comment="kpoint 49">
       <r>  -61.5415    1.0000 </r>
       <r>  -35.7983    1.0000 </r>
       <r>  -35.6767    1.0000 </r>
       <r>  -35.6344    1.0000 </r>
       <r>  -13.3849    1.0000 </r>
       <r>  -12.9223    1.0000 </r>
       <r>   -5.7755    1.0000 </r>
       <r>   -4.9811    1.0000 </r>
       <r>   -4.4465    1.0000 </r>
       <r>   -4.0351    1.0000 </r>
       <r>   -2.9863    1.0000 </r>
       <r>   -1.9954    1.0000 </r>
       <r>   -1.4973    1.0000 </r>
       <r>    1.3155    0.0000 </r>
       <r>    1.8148    0.0000 </r>
       <r>    2.1843    0.0000 </r>
       <r>    3.6753    0.0000 </r>
       <r>    6.7438    0.0000 </r>
       <r>    7.1704    0.0000 </r>
       <r>    7.6999    0.0000 </r>
       <r>    8.3528    0.0000 </r>
       <r>    8.8297    0.0000 </r>
       <r>    9.6036    0.0000 </r>
       <r>   10.1295    0.0000 </r>
      </set>
      <set comment="kpoint 50">
       <r>  -61.5471    1.0000 </r>
       <r>  -35.7617    1.0000 </r>
       <r>  -35.6876    1.0000 </r>
       <r>  -35.6026    1.0000 </r>
       <r>  -13.6859    1.0000 </r>
       <r>  -13.0481    1.0000 </r>
       <r>   -5.6960    1.0000 </r>
       <r>   -4.5587    1.0000 </r>
       <r>   -4.5540    1.0000 </r>
       <r>   -3.8475    1.0000 </r>
       <r>   -2.6408    1.0000 </r>
       <r>   -1.8880    1.0000 </r>
       <r>   -1.5432    1.0000 </r>
       <r>    1.2449    0.0000 </r>
       <r>    1.7375    0.0000 </r>
       <r>    2.0829    0.0000 </r>
       <r>    3.4607    0.0000 </r>
       <r>    6.2351    0.0000 </r>
       <r>    6.6707    0.0000 </r>
       <r>    7.8625    0.0000 </r>
       <r>    8.0386    0.0000 </r>
       <r>    8.6616    0.0000 </r>
       <r>    9.3499    0.0000 </r>
       <r>    9.9697    0.0000 </r>
      </set>
      <set comment="kpoint 51">
       <r>  -61.5524    1.0000 </r>
       <r>  -35.7206    1.0000 </r>
       <r>  -35.6981    1.0000 </r>
       <r>  -35.5779    1.0000 </r>
       <r>  -13.9563    1.0000 </r>
       <r>  -13.1597    1.0000 </r>
       <r>   -5.6890    1.0000 </r>
       <r>   -4.5465    1.0000 </r>
       <r>   -4.2832    1.0000 </r>
       <r>   -3.4038    1.0000 </r>
       <r>   -2.5550    1.0000 </r>
       <r>   -1.9285    1.0000 </r>
       <r>   -1.4557    1.0000 </r>
       <r>    1.3612    0.0000 </r>
       <r>    1.6703    0.0000 </r>
       <r>    2.0715    0.0000 </r>
       <r>    3.1566    0.0000 </r>
       <r>    5.7955    0.0000 </r>
       <r>    6.2622    0.0000 </r>
       <r>    7.3988    0.0000 </r>
       <r>    8.1835    0.0000 </r>
       <r>    8.6136    0.0000 </r>
       <r>    8.9201    0.0000 </r>
       <r>    9.8487    0.0000 </r>
      </set>
      <set comment="kpoint 52">
       <r>  -61.5567    1.0000 </r>
       <r>  -35.7070    1.0000 </r>
       <r>  -35.6811    1.0000 </r>
       <r>  -35.5639    1.0000 </r>
       <r>  -14.1633    1.0000 </r>
       <r>  -13.2441    1.0000 </r>
       <r>   -5.7522    1.0000 </r>
       <r>   -4.4109    1.0000 </r>
       <r>   -4.0474    1.0000 </r>
       <r>   -3.0504    1.0000 </r>
       <r>   -2.6793    1.0000 </r>
       <r>   -1.9413    1.0000 </r>
       <r>   -1.2816    1.0000 </r>
       <r>    1.4506    0.0000 </r>
       <r>    1.7167    0.0000 </r>
       <r>    2.0190    0.0000 </r>
       <r>    2.8983    0.0000 </r>
       <r>    5.4875    0.0000 </r>
       <r>    5.9703    0.0000 </r>
       <r>    7.1060    0.0000 </r>
       <r>    7.9971    0.0000 </r>
       <r>    8.7932    0.0000 </r>
       <r>    8.8976    0.0000 </r>
       <r>    9.6974    0.0000 </r>
      </set>
      <set comment="kpoint 53">
       <r>  -61.5317    1.0000 </r>
       <r>  -35.8313    1.0000 </r>
       <r>  -35.7216    1.0000 </r>
       <r>  -35.6566    1.0000 </r>
       <r>  -12.7938    1.0000 </r>
       <r>  -12.6649    1.0000 </r>
       <r>   -5.9320    1.0000 </r>
       <r>   -5.6939    1.0000 </r>
       <r>   -4.4035    1.0000 </r>
       <r>   -4.0411    1.0000 </r>
       <r>   -3.7949    1.0000 </r>
       <r>   -2.6295    1.0000 </r>
       <r>   -1.0032    1.0000 </r>
       <r>    1.2250    0.0000 </r>
       <r>    2.4011    0.0000 </r>
       <r>    2.4757    0.0000 </r>
       <r>    3.9932    0.0000 </r>
       <r>    6.5483    0.0000 </r>
       <r>    7.3972    0.0000 </r>
       <r>    8.4795    0.0000 </r>
       <r>    8.9838    0.0000 </r>
       <r>    9.7986    0.0000 </r>
       <r>   10.2459    0.0000 </r>
       <r>   10.8716    0.0000 </r>
      </set>
      <set comment="kpoint 54">
       <r>  -61.5304    1.0000 </r>
       <r>  -35.8230    1.0000 </r>
       <r>  -35.7465    1.0000 </r>
       <r>  -35.6536    1.0000 </r>
       <r>  -12.7082    1.0000 </r>
       <r>  -12.6245    1.0000 </r>
       <r>   -6.0740    1.0000 </r>
       <r>   -5.5038    1.0000 </r>
       <r>   -4.6386    1.0000 </r>
       <r>   -4.1712    1.0000 </r>
       <r>   -3.6578    1.0000 </r>
       <r>   -2.8138    1.0000 </r>
       <r>   -0.8168    1.0000 </r>
       <r>    1.0225    0.0000 </r>
       <r>    2.3841    0.0000 </r>
       <r>    2.7258    0.0000 </r>
       <r>    4.0790    0.0000 </r>
       <r>    6.3915    0.0000 </r>
       <r>    7.1950    0.0000 </r>
       <r>    8.8115    0.0000 </r>
       <r>    9.5122    0.0000 </r>
       <r>   10.2736    0.0000 </r>
       <r>   10.6661    0.0000 </r>
       <r>   10.6963    0.0000 </r>
      </set>
      <set comment="kpoint 55">
       <r>  -61.5308    1.0000 </r>
       <r>  -35.8265    1.0000 </r>
       <r>  -35.7371    1.0000 </r>
       <r>  -35.6544    1.0000 </r>
       <r>  -12.7372    1.0000 </r>
       <r>  -12.6383    1.0000 </r>
       <r>   -6.0258    1.0000 </r>
       <r>   -5.5857    1.0000 </r>
       <r>   -4.5211    1.0000 </r>
       <r>   -4.1461    1.0000 </r>
       <r>   -3.7123    1.0000 </r>
       <r>   -2.7431    1.0000 </r>
       <r>   -0.8879    1.0000 </r>
       <r>    1.1009    0.0000 </r>
       <r>    2.3906    0.0000 </r>
       <r>    2.6355    0.0000 </r>
       <r>    4.0492    0.0000 </r>
       <r>    6.4562    0.0000 </r>
       <r>    7.2593    0.0000 </r>
       <r>    8.6850    0.0000 </r>
       <r>    9.2937    0.0000 </r>
       <r>   10.0752    0.0000 </r>
       <r>   10.5248    0.0000 </r>
       <r>   10.8179    0.0000 </r>
      </set>
      <set comment="kpoint 56">
       <r>  -61.5329    1.0000 </r>
       <r>  -35.8345    1.0000 </r>
       <r>  -35.7023    1.0000 </r>
       <r>  -35.6592    1.0000 </r>
       <r>  -12.8747    1.0000 </r>
       <r>  -12.7024    1.0000 </r>
       <r>   -5.7971    1.0000 </r>
       <r>   -5.7902    1.0000 </r>
       <r>   -4.3726    1.0000 </r>
       <r>   -3.8792    1.0000 </r>
       <r>   -3.8135    1.0000 </r>
       <r>   -2.5004    1.0000 </r>
       <r>   -1.1299    1.0000 </r>
       <r>    1.3538    0.0000 </r>
       <r>    2.2795    0.0000 </r>
       <r>    2.4119    0.0000 </r>
       <r>    3.9201    0.0000 </r>
       <r>    6.6390    0.0000 </r>
       <r>    7.5869    0.0000 </r>
       <r>    8.2375    0.0000 </r>
       <r>    8.6988    0.0000 </r>
       <r>    9.4992    0.0000 </r>
       <r>    9.9345    0.0000 </r>
       <r>   10.7435    0.0000 </r>
      </set>
      <set comment="kpoint 57">
       <r>  -61.5364    1.0000 </r>
       <r>  -35.8321    1.0000 </r>
       <r>  -35.6663    1.0000 </r>
       <r>  -35.6611    1.0000 </r>
       <r>  -13.0918    1.0000 </r>
       <r>  -12.8003    1.0000 </r>
       <r>   -5.9020    1.0000 </r>
       <r>   -5.4399    1.0000 </r>
       <r>   -4.4326    1.0000 </r>
       <r>   -3.9857    1.0000 </r>
       <r>   -3.2290    1.0000 </r>
       <r>   -2.2710    1.0000 </r>
       <r>   -1.3437    1.0000 </r>
       <r>    1.4763    0.0000 </r>
       <r>    1.9324    0.0000 </r>
       <r>    2.4204    0.0000 </r>
       <r>    3.7592    0.0000 </r>
       <r>    6.7844    0.0000 </r>
       <r>    7.5793    0.0000 </r>
       <r>    7.7085    0.0000 </r>
       <r>    8.6422    0.0000 </r>
       <r>    8.9241    0.0000 </r>
       <r>    9.4676    0.0000 </r>
       <r>   10.3355    0.0000 </r>
      </set>
      <set comment="kpoint 58">
       <r>  -61.5409    1.0000 </r>
       <r>  -35.8161    1.0000 </r>
       <r>  -35.6753    1.0000 </r>
       <r>  -35.6235    1.0000 </r>
       <r>  -13.3471    1.0000 </r>
       <r>  -12.9110    1.0000 </r>
       <r>   -5.9057    1.0000 </r>
       <r>   -5.0577    1.0000 </r>
       <r>   -4.5309    1.0000 </r>
       <r>   -3.9217    1.0000 </r>
       <r>   -2.6910    1.0000 </r>
       <r>   -2.1572    1.0000 </r>
       <r>   -1.4932    1.0000 </r>
       <r>    1.3709    0.0000 </r>
       <r>    1.7931    0.0000 </r>
       <r>    2.4183    0.0000 </r>
       <r>    3.5972    0.0000 </r>
       <r>    6.7203    0.0000 </r>
       <r>    7.1860    0.0000 </r>
       <r>    7.3523    0.0000 </r>
       <r>    8.3027    0.0000 </r>
       <r>    8.4356    0.0000 </r>
       <r>    9.6358    0.0000 </r>
       <r>   10.1043    0.0000 </r>
      </set>
      <set comment="kpoint 59">
       <r>  -61.5455    1.0000 </r>
       <r>  -35.7881    1.0000 </r>
       <r>  -35.6844    1.0000 </r>
       <r>  -35.5959    1.0000 </r>
       <r>  -13.5983    1.0000 </r>
       <r>  -13.0160    1.0000 </r>
[...]
       <r>     5.1200     0.5690    34.2065 </r>
       <r>     5.1300     0.6084    34.2125 </r>
       <r>     5.1400     0.6427    34.2190 </r>
       <r>     5.1500     0.6706    34.2257 </r>
       <r>     5.1600     0.6900    34.2326 </r>
       <r>     5.1700     0.6986    34.2396 </r>
       <r>     5.1800     0.6957    34.2465 </r>
       <r>     5.1900     0.6834    34.2533 </r>
       <r>     5.2000     0.6669    34.2600 </r>
       <r>     5.2100     0.6530    34.2665 </r>
       <r>     5.2200     0.6477    34.2730 </r>
       <r>     5.2300     0.6545    34.2796 </r>
       <r>     5.2400     0.6740    34.2863 </r>
       <r>     5.2500     0.7051    34.2934 </r>
       <r>     5.2600     0.7462    34.3008 </r>
       <r>     5.2700     0.7954    34.3088 </r>
       <r>     5.2800     0.8501    34.3173 </r>
       <r>     5.2900     0.9066    34.3263 </r>
       <r>     5.3000     0.9595    34.3359 </r>
       <r>     5.3100     1.0022    34.3460 </r>
       <r>     5.3200     1.0285    34.3562 </r>
       <r>     5.3300     1.0334    34.3666 </r>
       <r>     5.3400     1.0148    34.3767 </r>
       <r>     5.3500     0.9741    34.3865 </r>
       <r>     5.3600     0.9157    34.3956 </r>
       <r>     5.3700     0.8462    34.4041 </r>
       <r>     5.3800     0.7729    34.4118 </r>
       <r>     5.3900     0.7043    34.4189 </r>
       <r>     5.4000     0.6497    34.4254 </r>
       <r>     5.4100     0.6198    34.4316 </r>
       <r>     5.4200     0.6259    34.4378 </r>
       <r>     5.4300     0.6778    34.4446 </r>
       <r>     5.4400     0.7801    34.4524 </r>
       <r>     5.4500     0.9292    34.4617 </r>
       <r>     5.4600     1.1118    34.4728 </r>
       <r>     5.4700     1.3053    34.4859 </r>
       <r>     5.4800     1.4818    34.5007 </r>
       <r>     5.4900     1.6136    34.5168 </r>
       <r>     5.5000     1.6806    34.5336 </r>
       <r>     5.5100     1.6756    34.5504 </r>
       <r>     5.5200     1.6060    34.5664 </r>
       <r>     5.5300     1.4915    34.5813 </r>
       <r>     5.5400     1.3587    34.5949 </r>
       <r>     5.5500     1.2343    34.6073 </r>
       <r>     5.5600     1.1400    34.6187 </r>
       <r>     5.5700     1.0896    34.6296 </r>
       <r>     5.5800     1.0883    34.6405 </r>
       <r>     5.5900     1.1322    34.6518 </r>
       <r>     5.6000     1.2090    34.6639 </r>
       <r>     5.6100     1.3000    34.6769 </r>
       <r>     5.6200     1.3837    34.6907 </r>
       <r>     5.6300     1.4407    34.7051 </r>
       <r>     5.6400     1.4588    34.7197 </r>
       <r>     5.6500     1.4363    34.7341 </r>
       <r>     5.6600     1.3817    34.7479 </r>
       <r>     5.6700     1.3109    34.7610 </r>
       <r>     5.6800     1.2425    34.7734 </r>
       <r>     5.6900     1.1943    34.7854 </r>
       <r>     5.7000     1.1801    34.7972 </r>
       <r>     5.7100     1.2084    34.8092 </r>
       <r>     5.7200     1.2829    34.8221 </r>
       <r>     5.7300     1.4018    34.8361 </r>
       <r>     5.7400     1.5574    34.8517 </r>
       <r>     5.7500     1.7359    34.8690 </r>
       <r>     5.7600     1.9176    34.8882 </r>
       <r>     5.7700     2.0792    34.9090 </r>
       <r>     5.7800     2.1981    34.9310 </r>
       <r>     5.7900     2.2575    34.9535 </r>
       <r>     5.8000     2.2503    34.9761 </r>
       <r>     5.8100     2.1810    34.9979 </r>
       <r>     5.8200     2.0639    35.0185 </r>
       <r>     5.8300     1.9198    35.0377 </r>
       <r>     5.8400     1.7703    35.0554 </r>
       <r>     5.8500     1.6341    35.0717 </r>
       <r>     5.8600     1.5232    35.0870 </r>
       <r>     5.8700     1.4436    35.1014 </r>
       <r>     5.8800     1.3970    35.1154 </r>
       <r>     5.8900     1.3831    35.1292 </r>
       <r>     5.9000     1.4012    35.1432 </r>
       <r>     5.9100     1.4501    35.1577 </r>
       <r>     5.9200     1.5264    35.1730 </r>
       <r>     5.9300     1.6233    35.1892 </r>
       <r>     5.9400     1.7297    35.2065 </r>
       <r>     5.9500     1.8312    35.2248 </r>
       <r>     5.9600     1.9117    35.2439 </r>
       <r>     5.9700     1.9558    35.2635 </r>
       <r>     5.9800     1.9523    35.2830 </r>
       <r>     5.9900     1.8980    35.3020 </r>
       <r>     6.0000     1.7993    35.3200 </r>
       <r>     6.0100     1.6715    35.3367 </r>
       <r>     6.0200     1.5343    35.3521 </r>
       <r>     6.0300     1.4070    35.3661 </r>
       <r>     6.0400     1.3039    35.3792 </r>
       <r>     6.0500     1.2324    35.3915 </r>
       <r>     6.0600     1.1928    35.4034 </r>
       <r>     6.0700     1.1799    35.4152 </r>
       <r>     6.0800     1.1838    35.4271 </r>
       <r>     6.0900     1.1928    35.4390 </r>
       <r>     6.1000     1.1958    35.4509 </r>
       <r>     6.1100     1.1866    35.4628 </r>
       <r>     6.1200     1.1670    35.4745 </r>
       <r>     6.1300     1.1472    35.4859 </r>
       <r>     6.1400     1.1449    35.4974 </r>
       <r>     6.1500     1.1810    35.5092 </r>
       <r>     6.1600     1.2750    35.5220 </r>
       <r>     6.1700     1.4395    35.5364 </r>
       <r>     6.1800     1.6762    35.5531 </r>
       <r>     6.1900     1.9725    35.5728 </r>
       <r>     6.2000     2.3023    35.5959 </r>
       <r>     6.2100     2.6290    35.6222 </r>
       <r>     6.2200     2.9134    35.6513 </r>
       <r>     6.2300     3.1220    35.6825 </r>
       <r>     6.2400     3.2344    35.7148 </r>
       <r>     6.2500     3.2449    35.7473 </r>
       <r>     6.2600     3.1618    35.7789 </r>
       <r>     6.2700     3.0022    35.8089 </r>
       <r>     6.2800     2.7876    35.8368 </r>
       <r>     6.2900     2.5412    35.8622 </r>
       <r>     6.3000     2.2861    35.8851 </r>
       <r>     6.3100     2.0444    35.9055 </r>
       <r>     6.3200     1.8356    35.9239 </r>
       <r>     6.3300     1.6748    35.9406 </r>
       <r>     6.3400     1.5706    35.9563 </r>
       <r>     6.3500     1.5239    35.9716 </r>
       <r>     6.3600     1.5276    35.9869 </r>
       <r>     6.3700     1.5680    36.0025 </r>
       <r>     6.3800     1.6281    36.0188 </r>
       <r>     6.3900     1.6933    36.0358 </r>
       <r>     6.4000     1.7574    36.0533 </r>
       <r>     6.4100     1.8243    36.0716 </r>
       <r>     6.4200     1.9053    36.0906 </r>
       <r>     6.4300     2.0110    36.1107 </r>
       <r>     6.4400     2.1435    36.1322 </r>
       <r>     6.4500     2.2918    36.1551 </r>
       <r>     6.4600     2.4353    36.1794 </r>
       <r>     6.4700     2.5515    36.2050 </r>
       <r>     6.4800     2.6247    36.2312 </r>
       <r>     6.4900     2.6508    36.2577 </r>
       <r>     6.5000     2.6353    36.2841 </r>
       <r>     6.5100     2.5880    36.3099 </r>
       <r>     6.5200     2.5170    36.3351 </r>
       <r>     6.5300     2.4252    36.3594 </r>
       <r>     6.5400     2.3114    36.3825 </r>
       <r>     6.5500     2.1747    36.4042 </r>
       <r>     6.5600     2.0194    36.4244 </r>
       <r>     6.5700     1.8584    36.4430 </r>
       <r>     6.5800     1.7124    36.4601 </r>
       <r>     6.5900     1.6055    36.4762 </r>
       <r>     6.6000     1.5580    36.4918 </r>
       <r>     6.6100     1.5795    36.5076 </r>
       <r>     6.6200     1.6643    36.5242 </r>
       <r>     6.6300     1.7925    36.5421 </r>
       <r>     6.6400     1.9352    36.5615 </r>
       <r>     6.6500     2.0637    36.5821 </r>
       <r>     6.6600     2.1595    36.6037 </r>
       <r>     6.6700     2.2195    36.6259 </r>
       <r>     6.6800     2.2555    36.6485 </r>
       <r>     6.6900     2.2867    36.6713 </r>
       <r>     6.7000     2.3308    36.6946 </r>
       <r>     6.7100     2.3951    36.7186 </r>
       <r>     6.7200     2.4740    36.7433 </r>
       <r>     6.7300     2.5521    36.7688 </r>
       <r>     6.7400     2.6109    36.7950 </r>
       <r>     6.7500     2.6357    36.8213 </r>
       <r>     6.7600     2.6201    36.8475 </r>
       <r>     6.7700     2.5661    36.8732 </r>
       <r>     6.7800     2.4807    36.8980 </r>
       <r>     6.7900     2.3706    36.9217 </r>
       <r>     6.8000     2.2383    36.9441 </r>
       <r>     6.8100     2.0818    36.9649 </r>
       <r>     6.8200     1.8984    36.9839 </r>
       <r>     6.8300     1.6916    37.0008 </r>
       <r>     6.8400     1.4756    37.0155 </r>
       <r>     6.8500     1.2752    37.0283 </r>
       <r>     6.8600     1.1206    37.0395 </r>
       <r>     6.8700     1.0379    37.0499 </r>
       <r>     6.8800     1.0403    37.0603 </r>
       <r>     6.8900     1.1242    37.0715 </r>
       <r>     6.9000     1.2706    37.0842 </r>
       <r>     6.9100     1.4513    37.0987 </r>
       <r>     6.9200     1.6370    37.1151 </r>
       <r>     6.9300     1.8038    37.1332 </r>
       <r>     6.9400     1.9369    37.1525 </r>
       <r>     6.9500     2.0312    37.1728 </r>
       <r>     6.9600     2.0894    37.1937 </r>
       <r>     6.9700     2.1185    37.2149 </r>
       <r>     6.9800     2.1268    37.2362 </r>
       <r>     6.9900     2.1218    37.2574 </r>
       <r>     7.0000     2.1092    37.2785 </r>
       <r>     7.0100     2.0932    37.2994 </r>
       <r>     7.0200     2.0781    37.3202 </r>
       <r>     7.0300     2.0681    37.3409 </r>
       <r>     7.0400     2.0672    37.3616 </r>
       <r>     7.0500     2.0767    37.3823 </r>
       <r>     7.0600     2.0944    37.4033 </r>
       <r>     7.0700     2.1159    37.4244 </r>
       <r>     7.0800     2.1375    37.4458 </r>
       <r>     7.0900     2.1611    37.4674 </r>
       <r>     7.1000     2.1961    37.4894 </r>
       <r>     7.1100     2.2596    37.5120 </r>
       <r>     7.1200     2.3705    37.5357 </r>
       <r>     7.1300     2.5421    37.5611 </r>
       <r>     7.1400     2.7729    37.5888 </r>
       <r>     7.1500     3.0428    37.6193 </r>
       <r>     7.1600     3.3143    37.6524 </r>
       <r>     7.1700     3.5427    37.6878 </r>
       <r>     7.1800     3.6891    37.7247 </r>
       <r>     7.1900     3.7329    37.7620 </r>
       <r>     7.2000     3.6779    37.7988 </r>
       <r>     7.2100     3.5487    37.8343 </r>
       <r>     7.2200     3.3806    37.8681 </r>
       <r>     7.2300     3.2062    37.9002 </r>
       <r>     7.2400     3.0447    37.9306 </r>
       <r>     7.2500     2.8988    37.9596 </r>
       <r>     7.2600     2.7571    37.9872 </r>
       <r>     7.2700     2.6027    38.0132 </r>
       <r>     7.2800     2.4226    38.0374 </r>
       <r>     7.2900     2.2155    38.0596 </r>
       <r>     7.3000     1.9957    38.0795 </r>
       <r>     7.3100     1.7917    38.0975 </r>
       <r>     7.3200     1.6401    38.1139 </r>
       <r>     7.3300     1.5763    38.1296 </r>
       <r>     7.3400     1.6250    38.1459 </r>
       <r>     7.3500     1.7933    38.1638 </r>
       <r>     7.3600     2.0680    38.1845 </r>
       <r>     7.3700     2.4175    38.2087 </r>
       <r>     7.3800     2.7978    38.2366 </r>
       <r>     7.3900     3.1611    38.2683 </r>
       <r>     7.4000     3.4661    38.3029 </r>
       <r>     7.4100     3.6853    38.3398 </r>
       <r>     7.4200     3.8087    38.3779 </r>
       <r>     7.4300     3.8426    38.4163 </r>
       <r>     7.4400     3.8040    38.4543 </r>
       <r>     7.4500     3.7136    38.4915 </r>
       <r>     7.4600     3.5905    38.5274 </r>
       <r>     7.4700     3.4512    38.5619 </r>
       <r>     7.4800     3.3107    38.5950 </r>
       <r>     7.4900     3.1846    38.6268 </r>
       <r>     7.5000     3.0908    38.6577 </r>
       <r>     7.5100     3.0460    38.6882 </r>
       <r>     7.5200     3.0606    38.7188 </r>
       <r>     7.5300     3.1313    38.7501 </r>
       <r>     7.5400     3.2369    38.7825 </r>
       <r>     7.5500     3.3399    38.8159 </r>
       <r>     7.5600     3.3957    38.8498 </r>
       <r>     7.5700     3.3652    38.8835 </r>
       <r>     7.5800     3.2282    38.9158 </r>
       <r>     7.5900     2.9903    38.9457 </r>
       <r>     7.6000     2.6828    38.9725 </r>
       <r>     7.6100     2.3546    38.9961 </r>
       <r>     7.6200     2.0613    39.0167 </r>
       <r>     7.6300     1.8533    39.0352 </r>
       <r>     7.6400     1.7675    39.0529 </r>
       <r>     7.6500     1.8215    39.0711 </r>
       <r>     7.6600     2.0100    39.0912 </r>
       <r>     7.6700     2.3036    39.1142 </r>
       <r>     7.6800     2.6508    39.1407 </r>
       <r>     7.6900     2.9853    39.1706 </r>
       <r>     7.7000     3.2392    39.2030 </r>
       <r>     7.7100     3.3598    39.2366 </r>
       <r>     7.7200     3.3243    39.2698 </r>
       <r>     7.7300     3.1460    39.3013 </r>
       <r>     7.7400     2.8680    39.3300 </r>
       <r>     7.7500     2.5490    39.3554 </r>
       <r>     7.7600     2.2461    39.3779 </r>
       <r>     7.7700     2.0027    39.3979 </r>
       <r>     7.7800     1.8456    39.4164 </r>
       <r>     7.7900     1.7886    39.4343 </r>
       <r>     7.8000     1.8392    39.4527 </r>
       <r>     7.8100     2.0009    39.4727 </r>
       <r>     7.8200     2.2708    39.4954 </r>
       <r>     7.8300     2.6322    39.5217 </r>
       <r>     7.8400     3.0494    39.5522 </r>
       <r>     7.8500     3.4675    39.5869 </r>
       <r>     7.8600     3.8220    39.6251 </r>
       <r>     7.8700     4.0546    39.6656 </r>
       <r>     7.8800     4.1307    39.7069 </r>
       <r>     7.8900     4.0487    39.7474 </r>
       <r>     7.9000     3.8392    39.7858 </r>
       <r>     7.9100     3.5530    39.8214 </r>
       <r>     7.9200     3.2440    39.8538 </r>
       <r>     7.9300     2.9553    39.8834 </r>
       <r>     7.9400     2.7124    39.9105 </r>
       <r>     7.9500     2.5239    39.9357 </r>
       <r>     7.9600     2.3890    39.9596 </r>
       <r>     7.9700     2.3042    39.9826 </r>
       <r>     7.9800     2.2692    40.0053 </r>
       <r>     7.9900     2.2869    40.0282 </r>
       <r>     8.0000     2.3613    40.0518 </r>
       <r>     8.0100     2.4920    40.0767 </r>
       <r>     8.0200     2.6692    40.1034 </r>
       <r>     8.0300     2.8716    40.1321 </r>
       <r>     8.0400     3.0697    40.1628 </r>
       <r>     8.0500     3.2332    40.1952 </r>
       <r>     8.0600     3.3420    40.2286 </r>
       <r>     8.0700     3.3934    40.2625 </r>
       <r>     8.0800     3.4035    40.2966 </r>
       <r>     8.0900     3.3991    40.3306 </r>
       <r>     8.1000     3.4047    40.3646 </r>
       <r>     8.1100     3.4311    40.3989 </r>
       <r>     8.1200     3.4706    40.4336 </r>
       <r>     8.1300     3.5030    40.4687 </r>
       <r>     8.1400     3.5081    40.5037 </r>
       <r>     8.1500     3.4794    40.5385 </r>
       <r>     8.1600     3.4311    40.5728 </r>
       <r>     8.1700     3.3955    40.6068 </r>
       <r>     8.1800     3.4107    40.6409 </r>
       <r>     8.1900     3.5051    40.6759 </r>
       <r>     8.2000     3.6840    40.7128 </r>
       <r>     8.2100     3.9243    40.7520 </r>
       <r>     8.2200     4.1795    40.7938 </r>
       <r>     8.2300     4.3933    40.8378 </r>
       <r>     8.2400     4.5175    40.8829 </r>
       <r>     8.2500     4.5273    40.9282 </r>
       <r>     8.2600     4.4281    40.9725 </r>
       <r>     8.2700     4.2523    41.0150 </r>
       <r>     8.2800     4.0470    41.0555 </r>
       <r>     8.2900     3.8585    41.0941 </r>
       <r>     8.3000     3.7193    41.1313 </r>
       <r>     8.3100     3.6417    41.1677 </r>
       <r>     8.3200     3.6176    41.2039 </r>
       <r>     8.3300     3.6236    41.2401 </r>
       <r>     8.3400     3.6289    41.2764 </r>
       <r>     8.3500     3.6037    41.3124 </r>
       <r>     8.3600     3.5263    41.3477 </r>
       <r>     8.3700     3.3886    41.3816 </r>
       <r>     8.3800     3.1973    41.4135 </r>
       <r>     8.3900     2.9715    41.4433 </r>
       <r>     8.4000     2.7368    41.4706 </r>
       <r>     8.4100     2.5188    41.4958 </r>
       <r>     8.4200     2.3374    41.5192 </r>
       <r>     8.4300     2.2040    41.5412 </r>
       <r>     8.4400     2.1204    41.5624 </r>
       <r>     8.4500     2.0800    41.5832 </r>
       <r>     8.4600     2.0704    41.6039 </r>
       <r>     8.4700     2.0767    41.6247 </r>
       <r>     8.4800     2.0856    41.6456 </r>
       <r>     8.4900     2.0886    41.6664 </r>
       <r>     8.5000     2.0832    41.6873 </r>
       <r>     8.5100     2.0725    41.7080 </r>
       <r>     8.5200     2.0623    41.7286 </r>
       <r>     8.5300     2.0587    41.7492 </r>
       <r>     8.5400     2.0663    41.7699 </r>
       <r>     8.5500     2.0883    41.7908 </r>
       <r>     8.5600     2.1274    41.8120 </r>
       <r>     8.5700     2.1856    41.8339 </r>
       <r>     8.5800     2.2632    41.8565 </r>
       <r>     8.5900     2.3581    41.8801 </r>
       <r>     8.6000     2.4668    41.9048 </r>
       <r>     8.6100     2.5861    41.9306 </r>
       <r>     8.6200     2.7149    41.9578 </r>
       <r>     8.6300     2.8536    41.9863 </r>
       <r>     8.6400     3.0003    42.0163 </r>
       <r>     8.6500     3.1465    42.0478 </r>
       <r>     8.6600     3.2766    42.0805 </r>
       <r>     8.6700     3.3711    42.1143 </r>
       <r>     8.6800     3.4138    42.1484 </r>
       <r>     8.6900     3.3988    42.1824 </r>
       <r>     8.7000     3.3340    42.2157 </r>
       <r>     8.7100     3.2407    42.2481 </r>
       <r>     8.7200     3.1493    42.2796 </r>
       <r>     8.7300     3.0939    42.3106 </r>
       <r>     8.7400     3.1060    42.3416 </r>
       <r>     8.7500     3.2060    42.3737 </r>
       <r>     8.7600     3.3959    42.4076 </r>
       <r>     8.7700     3.6540    42.4442 </r>
       <r>     8.7800     3.9365    42.4835 </r>
       <r>     8.7900     4.1877    42.5254 </r>
       <r>     8.8000     4.3559    42.5690 </r>
       <r>     8.8100     4.4105    42.6131 </r>
       <r>     8.8200     4.3524    42.6566 </r>
       <r>     8.8300     4.2137    42.6987 </r>
       <r>     8.8400     4.0469    42.7392 </r>
       <r>     8.8500     3.9103    42.7783 </r>
       <r>     8.8600     3.8528    42.8168 </r>
       <r>     8.8700     3.9042    42.8559 </r>
       <r>     8.8800     4.0697    42.8966 </r>
       <r>     8.8900     4.3283    42.9399 </r>
       <r>     8.9000     4.6350    42.9862 </r>
       <r>     8.9100     4.9291    43.0355 </r>
       <r>     8.9200     5.1466    43.0870 </r>
       <r>     8.9300     5.2357    43.1393 </r>
       <r>     8.9400     5.1689    43.1910 </r>
       <r>     8.9500     4.9473    43.2405 </r>
       <r>     8.9600     4.5980    43.2865 </r>
       <r>     8.9700     4.1670    43.3281 </r>
       <r>     8.9800     3.7123    43.3653 </r>
       <r>     8.9900     3.2970    43.3982 </r>
       <r>     9.0000     2.9817    43.4281 </r>
      </set>
     </set>
    </array>
   </total>
  </dos>
 </calculation>
 <structure name="finalpos" >
  <crystal>
   <varray name="basis" >
    <v>       3.18386047       0.00000000       0.00000000 </v>
    <v>      -1.59193023       2.75730405       0.00000000 </v>
    <v>       0.00000000       0.00000000      15.00000000 </v>
   </varray>
   <i name="volume">    131.68307038 </i>
   <varray name="rec_basis" >
    <v>       0.31408412       0.18133655       0.00000000 </v>
    <v>       0.00000000       0.36267310       0.00000000 </v>
    <v>       0.00000000       0.00000000       0.06666667 </v>
   </varray>
  </crystal>
  <varray name="positions" >
   <v>       0.66666669       0.33333334       0.25000000 </v>
   <v>       0.33333334       0.66666669       0.35415213 </v>
   <v>       0.33333334       0.66666669       0.14584787 </v>
  </varray>
 </structure>
</modeling>
